TITLE = "Clinical Assessment Metrics"
VARIABLES = "Metric_Index", "Metric_Value", "Normal_Min", "Normal_Max", "Risk_Level"
ZONE T="Clinical Metrics Data"
1	21.00035000583343	12	20	0
2	3.782854591170652	0.5	5.0	0
3	422.4973749562493	0.4	0.6	1
4	4.959245584906294	3.0	6.0	0
5	0	5.0	20.0	1
