TITLE = "PCA Analysis Results"
VARIABLES = "PC1", "PC2", "PC3"
ZONE T="PCA Data"
-1.531406084805075	3.432200487742962	-1.431282229570118
3.424124140879503	0.913037820933192	3.06897389368232
-3.2513895858820083	2.3145389378391306	-1.388937015957659
4.358354341114673	0.790019364936418	1.1264668324037226
-4.25647733669377	0.8749025638287161	0.5907510355810447
4.496767000226852	1.0542304023743256	-0.5644808521821512
-4.300270969581849	0.022741253372154942	1.3460720455382924
4.468538741522349	0.4932997681279613	-1.026697150666374
-4.466132937035483	-0.3370025637968295	1.035217055811985
4.482184463507384	0.10650384892027602	-0.6538190433509827
-3.9166801516536953	0.03816614460742503	1.2670764306168414
3.8493589389878613	0.9126622442879828	-0.4713450973018552
-3.767856282310956	0.23430099022946196	1.1907111283122387
3.3945140372799765	0.9580869439959812	-0.22040791631358564
-3.2164659911786635	0.4260134234952796	0.6397439213937367
3.430360424990008	0.037932510652089906	-0.18517282252043651
-3.3309951366710497	-0.2987676604164967	-0.14904460767499159
2.907832763732266	-0.6037657271995446	0.17689685684961018
-3.029126655138867	-0.469893103690862	-0.7131827469312207
2.66416929560332	-1.0130637030647252	0.3296216846463933
-2.9508150117197367	-0.8037853118897867	-1.0351377968596855
2.3367178146319416	-1.4132723713344888	0.19335362006193635
-2.934252464401648	-1.2006536146543354	-1.3630136675530842
2.1145710548922265	-2.0892879525913357	0.0001973978791359782
-2.694392267418981	-1.8131545137867915	-1.5942674680180149
1.718767857123406	-2.5659901829181804	-0.16829348787712006
