TITLE = "Breathing Cycles Analysis"
VARIABLES = "Cycle_Number", "Peak_Time", "Peak_Amplitude", "Cycle_Duration", "Tidal_Volume"
ZONE T="Breathing Cycles Data"
1	0.666	-2.8740128982784943	2.297	0.0028064552503650475
2	2.963	-2.8784005524637415	2.018	0.0035220386082293054
3	4.981	-2.8779732592220113	2.521	0.007572960635886972
4	7.502	-2.8814129162234963	2.473	0.0004712422783303971
5	9.975	-2.8783997126578744	2.1240000000000006	0.0006962192676320811
6	12.099	-2.87455376587128	2.519	0.004542166054226637
7	14.618	-2.876417329427224	6.165000000000001	0.0034073093733928417
8	20.783	-2.8774540704810025	2.221	0.0067182204039943905
9	23.004	-2.880127522417811	2.421999999999997	0.00029279379955138296
10	25.426	-2.8770437277531813	2.5440000000000005	0.003376588464181207
11	27.97	-2.880140049533223	2.1590000000000025	0.001920773171153911
12	30.129	-2.875813468228462	2.0849999999999973	0.0029241370552499646
13	32.214	-2.878158450506575	3.047000000000004	0.002021150897941748
14	35.261	-2.8720981677795856	2.1799999999999997	0.0051338427845668555
15	37.441	-2.8753113805087778	2.8859999999999957	0.0029534356535454442
16	40.327	-2.873576213383113	2.801000000000002	0.006279974374854724
17	43.128	-2.875202496258101	4.957000000000001	0.007309752442405948
18	48.085	-2.8750922697226384	4.4510000000000005	0.0068223784869818616
19	52.536	-2.877173277955145	3.5150000000000006	0.003206558754583977
20	56.051	-2.8753586405075726	3.6199999999999974	0.004707117395274185
