TITLE = "Signal Processing Analysis"
VARIABLES = "Time", "Raw_Signal", "Filtered_Signal"
ZONE T="Signal Data"
0.0	-2.8905826828183296	-2.8806588674780325
0.001	-2.877304926794711	-2.8806569741193395
0.002	-2.8818932741695082	-2.8806512939384707
0.003	-2.877304926794711	-2.8806418266210527
0.004	-2.8687159619031544	-2.8806285716431304
0.005	-2.886481622433429	-2.8806115282711646
0.006	-2.873283330175067	-2.880590695562037
0.007	-2.886481622433429	-2.8805660723630457
0.008	-2.886481622433429	-2.8805376573119053
0.009	-2.8818932741695082	-2.8805054488367507
0.01	-2.8818932741695082	-2.880469445156132
0.011	-2.886481622433429	-2.8804296442790203
0.012	-2.8778506993278206	-2.880386044004801
0.013	-2.873283330175067	-2.88033864192328
0.014	-2.886481622433429	-2.88028743541468
0.015	-2.886481622433429	-2.880232421649641
0.016	-2.886481622433429	-2.8801735975892218
0.017	-2.886481622433429	-2.8801109599848984
0.018	-2.8818932741695082	-2.880044505378565
0.019	-2.8818932741695082	-2.8799742301025333
0.02	-2.8818932741695082	-2.8799001302795335
0.021	-2.873283330175067	-2.8798222018227126
0.022	-2.8910699715822368	-2.879740440435636
0.023	-2.8778506993278206	-2.879654841612287
0.024	-2.8778506993278206	-2.879565400637066
0.025	-2.8778506993278206	-2.8794721125847924
0.026	-2.8778506993278206	-2.8793774348129135
0.027	-2.886481622433429	-2.879283824574087
0.028	-2.873283330175067	-2.8791912766287577
0.029	-2.873283330175067	-2.8790997857373712
0.03	-2.873283330175067	-2.8790093466603737
0.031	-2.873283330175067	-2.878919954158209
0.032	-2.886481622433429	-2.8788316029913243
0.033	-2.886481622433429	-2.8787442879201643
0.034	-2.886481622433429	-2.878658003705175
0.035	-2.873283330175067	-2.8785727451068017
0.036	-2.886481622433429	-2.8784885068854895
0.037	-2.873283330175067	-2.8784052838016847
0.038	-2.873283330175067	-2.8783230706158314
0.039	-2.873283330175067	-2.8782418620883767
0.04	-2.873283330175067	-2.878161652979765
0.041	-2.886481622433429	-2.8780824380504426
0.042	-2.873283330175067	-2.8780042120608544
0.043	-2.873283330175067	-2.8779269697714467
0.044	-2.873283330175067	-2.8778507059426643
0.045	-2.873283330175067	-2.8777754153349524
0.046	-2.8778506993278206	-2.877701092708757
0.047	-2.8778506993278206	-2.8776277328245237
0.048	-2.873283330175067	-2.8775553304426977
0.049	-2.8910699715822368	-2.877483880323725
0.05	-2.8778506993278206	-2.8774133772280504
0.051	-2.8778506993278206	-2.87734381591612
0.052	-2.8778506993278206	-2.8772751911483794
0.053	-2.8778506993278206	-2.8772074976852737
0.054	-2.8778506993278206	-2.877140730287248
0.055	-2.873283330175067	-2.8770748837147484
0.056	-2.873283330175067	-2.87700995272822
0.057	-2.8778506993278206	-2.8769459320881094
0.058	-2.8778506993278206	-2.8768828165548608
0.059	-2.8778506993278206	-2.8768206008889208
0.06	-2.873283330175067	-2.8767592798507335
0.061	-2.8778506993278206	-2.876698848200746
0.062	-2.8778506993278206	-2.8766393006994027
0.063	-2.873283330175067	-2.8765806321071494
0.064	-2.873283330175067	-2.876522837184432
0.065	-2.873283330175067	-2.876465910691695
0.066	-2.873283330175067	-2.8764098473893847
0.067	-2.873283330175067	-2.8763546420379464
0.068	-2.873283330175067	-2.876300289397826
0.069	-2.886481622433429	-2.876246784229468
0.07	-2.8778506993278206	-2.8761941212933193
0.071	-2.873283330175067	-2.8761422953498244
0.072	-2.873283330175067	-2.8760913011594287
0.073	-2.873283330175067	-2.8760411334825786
0.074	-2.8687159619031544	-2.8759917870797187
0.075	-2.877304926794711	-2.8759432567112952
0.076	-2.8727165803132935	-2.8758955371377533
0.077	-2.8818932741695082	-2.875848623119538
0.078	-2.8687159619031544	-2.8758025094170963
0.079	-2.8778506993278206	-2.8757571907908717
0.08	-2.8778506993278206	-2.8757126620013107
0.081	-2.864751765747872	-2.875668917808859
0.082	-2.8778506993278206	-2.875625952973962
0.083	-2.873283330175067	-2.875583762257065
0.084	-2.8687159619031544	-2.875542340418613
0.085	-2.8778506993278206	-2.875501682219053
0.086	-2.8778506993278206	-2.8754617824188298
0.087	-2.864751765747872	-2.875422635778388
0.088	-2.864751765747872	-2.8753842370581744
0.089	-2.8778506993278206	-2.875346581018633
0.09	-2.8778506993278206	-2.8753096624202112
0.091	-2.8778506993278206	-2.8752734760233536
0.092	-2.8778506993278206	-2.875238016588505
0.093	-2.87790431184675	-2.875203278876112
0.094	-2.8778506993278206	-2.8751692576466197
0.095	-2.8778506993278206	-2.8751359476604734
0.096	-2.8778506993278206	-2.8751033436781186
0.097	-2.8778506993278206	-2.875071440460001
0.098	-2.8778506993278206	-2.8750402327665667
0.099	-2.8778506993278206	-2.87500971535826
0.1	-2.873283330175067	-2.874979882995527
0.101	-2.873283330175067	-2.8749507304388136
0.102	-2.873283330175067	-2.8749222524485645
0.103	-2.873283330175067	-2.8748944437852257
0.104	-2.873283330175067	-2.8748672992092428
0.105	-2.873283330175067	-2.874840813481061
0.106	-2.873283330175067	-2.874814981361126
0.107	-2.873283330175067	-2.874789797609883
0.108	-2.873283330175067	-2.8747652569877777
0.109	-2.873283330175067	-2.8747413542552556
0.11	-2.873283330175067	-2.874718084172762
0.111	-2.8687159619031544	-2.8746954415007435
0.112	-2.873283330175067	-2.874673420999644
0.113	-2.8687159619031544	-2.8746520174299097
0.114	-2.872144607863162	-2.8746312255519864
0.115	-2.881363643528437	-2.8746110401263194
0.116	-2.8727165803132935	-2.8745914559133543
0.117	-2.8727165803132935	-2.874572467673536
0.118	-2.8727165803132935	-2.8745540701673105
0.119	-2.868128234729546	-2.8745362581551235
0.12	-2.8727165803132935	-2.87451902639742
0.121	-2.877304926794711	-2.8745023696546457
0.122	-2.873283330175067	-2.874486282687246
0.123	-2.8824180693572306	-2.8744707602556674
0.124	-2.864751765747872	-2.874455797120354
0.125	-2.8778506993278206	-2.8744413880417516
0.126	-2.869298346763917	-2.8744275277803064
0.127	-2.8824180693572306	-2.8744142110964632
0.128	-2.8824180693572306	-2.874401432750668
0.129	-2.8778506993278206	-2.8743891875033665
0.13	-2.8824180693572306	-2.8743774701150033
0.131	-2.8778506993278206	-2.8743662753460244
0.132	-2.8778506993278206	-2.8743555979568756
0.133	-2.8778506993278206	-2.874345432708002
0.134	-2.873283330175067	-2.8743357743598494
0.135	-2.873283330175067	-2.8743266176728626
0.136	-2.8778506993278206	-2.8743179574074884
0.137	-2.873283330175067	-2.874309788324171
0.138	-2.864751765747872	-2.874302105183357
0.139	-2.873283330175067	-2.874294902745491
0.14	-2.873283330175067	-2.874288175771019
0.141	-2.873283330175067	-2.874281919020386
0.142	-2.8778506993278206	-2.8742761272540376
0.143	-2.873283330175067	-2.87427079523242
0.144	-2.886481622433429	-2.874265917715978
0.145	-2.8687159619031544	-2.874261489465158
0.146	-2.873283330175067	-2.8742575052404042
0.147	-2.873283330175067	-2.874253959802163
0.148	-2.873283330175067	-2.8742508479108797
0.149	-2.873283330175067	-2.8742481643269997
0.15	-2.8687159619031544	-2.874245903810969
0.151	-2.873283330175067	-2.8742440611232327
0.152	-2.873283330175067	-2.874242631024236
0.153	-2.873283330175067	-2.8742416082744247
0.154	-2.873283330175067	-2.874240987634244
0.155	-2.873283330175067	-2.8742407638641403
0.156	-2.873283330175067	-2.874240931724558
0.157	-2.8778506993278206	-2.8742414859759435
0.158	-2.8778506993278206	-2.8742424213787414
0.159	-2.8778506993278206	-2.8742437326933983
0.16	-2.8778506993278206	-2.874245414680359
0.161	-2.8778506993278206	-2.874247462100069
0.162	-2.8778506993278206	-2.8742498697129744
0.163	-2.8778506993278206	-2.8742526322795197
0.164	-2.8778506993278206	-2.874255744560151
0.165	-2.8778506993278206	-2.8742592013153136
0.166	-2.8778506993278206	-2.874262997305453
0.167	-2.8778506993278206	-2.8742671272910156
0.168	-2.873283330175067	-2.8742715860324455
0.169	-2.8778506993278206	-2.874276368290189
0.17	-2.873283330175067	-2.8742814688246923
0.171	-2.873283330175067	-2.874286882396399
0.172	-2.873283330175067	-2.8742926037657566
0.173	-2.8778506993278206	-2.874298627693209
0.174	-2.873283330175067	-2.8743049489392023
0.175	-2.873283330175067	-2.8743115622641824
0.176	-2.873283330175067	-2.874318462428752
0.177	-2.873283330175067	-2.8743262831131364
0.178	-2.886481622433429	-2.874333059060378
0.179	-2.873283330175067	-2.874340466014888
0.18	-2.873283330175067	-2.874347810153891
0.181	-2.8733370279148276	-2.87435443216795
0.182	-2.873283330175067	-2.874361990619728
0.183	-2.873283330175067	-2.874369148514165
0.184	-2.873283330175067	-2.8743768898709403
0.185	-2.873283330175067	-2.8743848863255796
0.186	-2.873283330175067	-2.8743931455685434
0.187	-2.873283330175067	-2.874401331044863
0.188	-2.873283330175067	-2.8744097998919047
0.189	-2.873283330175067	-2.8744182540855916
0.19	-2.873283330175067	-2.8744263414821307
0.191	-2.873283330175067	-2.874434709819406
0.192	-2.873283330175067	-2.874443377848034
0.193	-2.873283330175067	-2.87445270196274
0.194	-2.873283330175067	-2.8744623553464743
0.195	-2.873283330175067	-2.8744720097781116
0.196	-2.873283330175067	-2.874482013646985
0.197	-2.8778506993278206	-2.8744920320879537
0.198	-2.8778506993278206	-2.874501424151328
0.199	-2.8778506993278206	-2.8745115324399215
0.2	-2.8778506993278206	-2.874521721715366
0.201	-2.8778506993278206	-2.874531650150053
0.202	-2.8778506993278206	-2.8745416594605486
0.203	-2.8778506993278206	-2.8745520829892737
0.204	-2.873283330175067	-2.874563224625703
0.205	-2.873283330175067	-2.874574096996597
0.206	-2.873283330175067	-2.874584687986254
0.207	-2.873283330175067	-2.8745940104310153
0.208	-2.873283330175067	-2.874603052078836
0.209	-2.873283330175067	-2.8746128007824616
0.21	-2.8687159619031544	-2.874623606928434
0.211	-2.873283330175067	-2.874635137734152
0.212	-2.873283330175067	-2.8746464068480417
0.213	-2.873283330175067	-2.8746584029529534
0.214	-2.873283330175067	-2.8746701400297083
0.215	-2.873283330175067	-2.874681607316666
0.216	-2.873283330175067	-2.874692794156979
0.217	-2.8687159619031544	-2.874704027457529
0.218	-2.873283330175067	-2.8747159506101285
0.219	-2.873283330175067	-2.8747275782848685
0.22	-2.886481622433429	-2.874738562950373
0.221	-2.873283330175067	-2.874749240576938
0.222	-2.886481622433429	-2.874759601259275
0.223	-2.8687159619031544	-2.874769981177262
0.224	-2.873283330175067	-2.8747803791990627
0.225	-2.873283330175067	-2.874790110900753
0.226	-2.873283330175067	-2.874800522706429
0.227	-2.873283330175067	-2.8748100068203764
0.228	-2.873283330175067	-2.874820868650713
0.229	-2.8778506993278206	-2.8748314267711006
0.23	-2.8778506993278206	-2.874842369469682
0.231	-2.8778506993278206	-2.8748543506685524
0.232	-2.873283330175067	-2.8748650231256176
0.233	-2.8778506993278206	-2.874875718658176
0.234	-2.8778506993278206	-2.8748857941114574
0.235	-2.8778506993278206	-2.874895918819632
0.236	-2.8778506993278206	-2.8749057427698466
0.237	-2.8778506993278206	-2.8749153006237473
0.238	-2.873283330175067	-2.8749248726495944
0.239	-2.873283330175067	-2.8749347523275293
0.24	-2.873283330175067	-2.8749449414243275
0.241	-2.873283330175067	-2.8749557456645465
0.242	-2.873283330175067	-2.8749661430351923
0.243	-2.873283330175067	-2.874975764659595
0.244	-2.873283330175067	-2.874985262436592
0.245	-2.873283330175067	-2.8749946063771388
0.246	-2.873283330175067	-2.875004435743719
0.247	-2.8778506993278206	-2.8750144443316348
0.248	-2.873283330175067	-2.8750249238813974
0.249	-2.873283330175067	-2.8750345201448098
0.25	-2.873283330175067	-2.875044194278589
0.251	-2.873283330175067	-2.875053584756426
0.252	-2.873283330175067	-2.875063318086475
0.253	-2.873283330175067	-2.8750723637334095
0.254	-2.873283330175067	-2.875081100842493
0.255	-2.8818932741695082	-2.87508952380108
0.256	-2.873283330175067	-2.875099283640274
0.257	-2.873283330175067	-2.8751107122978095
0.258	-2.873283330175067	-2.8751214819755733
0.259	-2.873283330175067	-2.8751315708384486
0.26	-2.873283330175067	-2.8751402808727824
0.261	-2.873283330175067	-2.8751472513585474
0.262	-2.8602051856044928	-2.875154150564481
0.263	-2.873283330175067	-2.8751603343707446
0.264	-2.8778506993278206	-2.875165795276025
0.265	-2.886481622433429	-2.87517051835853
0.266	-2.8778506993278206	-2.875175143408492
0.267	-2.8778506993278206	-2.875179688384928
0.268	-2.8778506993278206	-2.8751835089288424
0.269	-2.8778506993278206	-2.8751872520912487
0.27	-2.8778506993278206	-2.875190639577222
0.271	-2.8778506993278206	-2.8751943305420826
0.272	-2.8778506993278206	-2.8751973591955386
0.273	-2.8778506993278206	-2.8752003886162454
0.274	-2.873283330175067	-2.8752030821059704
0.275	-2.8778506993278206	-2.8752064698027437
0.276	-2.873283330175067	-2.875209205163332
0.277	-2.8778506993278206	-2.875211911111606
0.278	-2.873283330175067	-2.875213258715837
0.279	-2.8778506993278206	-2.8752142397889946
0.28	-2.873283330175067	-2.875214846324659
0.281	-2.8778506993278206	-2.8752150702739114
0.282	-2.873283330175067	-2.8752155869847114
0.283	-2.8778506993278206	-2.8752154132553924
0.284	-2.886481622433429	-2.875214558609527
0.285	-2.886481622433429	-2.8752133210647224
0.286	-2.873283330175067	-2.875211393684428
0.287	-2.873283330175067	-2.8752097174787368
0.288	-2.873283330175067	-2.87520729607594
0.289	-2.886481622433429	-2.8752044585554297
0.29	-2.873283330175067	-2.875200560351518
0.291	-2.8818932741695082	-2.875194563420016
0.292	-2.873283330175067	-2.8751891541568453
0.293	-2.873283330175067	-2.8751836924151535
0.294	-2.8778506993278206	-2.875178176929065
0.295	-2.873283330175067	-2.875172943886371
0.296	-2.873283330175067	-2.875166636185542
0.297	-2.873283330175067	-2.8751602121242223
0.298	-2.8778506993278206	-2.8751540093830474
0.299	-2.8778506993278206	-2.875148068013561
0.3	-2.873283330175067	-2.875141760163457
0.301	-2.873283330175067	-2.875135446003723
0.302	-2.873283330175067	-2.875128776069175
0.303	-2.8778506993278206	-2.8751217967834406
0.304	-2.873283330175067	-2.875114800123993
0.305	-2.873283330175067	-2.8751087849310686
0.306	-2.873283330175067	-2.8751017723529713
0.307	-2.8778506993278206	-2.875094761266133
0.308	-2.873283330175067	-2.875088752121501
0.309	-2.864751765747872	-2.875082776908596
0.31	-2.873283330175067	-2.875077181408971
0.311	-2.8778506993278206	-2.8750723114466132
0.312	-2.8778506993278206	-2.875066499836766
0.313	-2.8778506993278206	-2.875060101497106
0.314	-2.8778506993278206	-2.8750544146307586
0.315	-2.8778506993278206	-2.8750488086902095
0.316	-2.8778506993278206	-2.875043274959225
0.317	-2.873283330175067	-2.8750368225974894
0.318	-2.8778506993278206	-2.8750304324324234
0.319	-2.873283330175067	-2.875023457931499
0.32	-2.8778506993278206	-2.8750175150635715
0.321	-2.873283330175067	-2.875011616868923
0.322	-2.873283330175067	-2.875005085625174
0.323	-2.873283330175067	-2.8749982499096087
0.324	-2.873283330175067	-2.8749917757160146
0.325	-2.873283330175067	-2.8749852996609917
0.326	-2.873283330175067	-2.874978466882573
0.327	-2.873283330175067	-2.874971268456668
0.328	-2.873283330175067	-2.8749650165496767
0.329	-2.8778506993278206	-2.8749587110622383
0.33	-2.873283330175067	-2.8749517155281716
0.331	-2.873283330175067	-2.874944681752219
0.332	-2.873283330175067	-2.874937609331787
0.333	-2.873283330175067	-2.8749314730170323
0.334	-2.873283330175067	-2.8749259174163644
0.335	-2.8778506993278206	-2.8749206446245346
0.336	-2.873283330175067	-2.874916299149459
0.337	-2.8778506993278206	-2.874911899811625
0.338	-2.8601588992572013	-2.874907809599541
0.339	-2.8778506993278206	-2.8749040455639716
0.34	-2.873283330175067	-2.87490159840076
0.341	-2.8778506993278206	-2.874900211133077
0.342	-2.8778506993278206	-2.8748982051539698
0.343	-2.8778506993278206	-2.8748965751826216
0.344	-2.8778506993278206	-2.874894993660425
0.345	-2.8778506993278206	-2.8748931330339773
0.346	-2.8778506993278206	-2.874891696721383
0.347	-2.873283330175067	-2.874890018171138
0.348	-2.8778506993278206	-2.8748880971518855
0.349	-2.8778506993278206	-2.874885893602354
0.35	-2.8778506993278206	-2.8748840438865564
0.351	-2.873283330175067	-2.8748825423253908
0.352	-2.8778506993278206	-2.874880758861086
0.353	-2.8778506993278206	-2.8748793330694724
0.354	-2.873283330175067	-2.874877278849687
0.355	-2.8778506993278206	-2.8748759165993407
0.356	-2.873283330175067	-2.874873618264209
0.357	-2.873283330175067	-2.8748697065592843
0.358	-2.873283330175067	-2.874865514221187
0.359	-2.886481622433429	-2.874861366132448
0.36	-2.873283330175067	-2.8748569077037907
0.361	-2.873283330175067	-2.8748524762641234
0.362	-2.873283330175067	-2.874849046836098
0.363	-2.8733370279148276	-2.8748459097988732
0.364	-2.873283330175067	-2.8748427504344556
0.365	-2.873283330175067	-2.874840215043223
0.366	-2.873283330175067	-2.874837673382248
0.367	-2.873283330175067	-2.8748357617049596
0.368	-2.8818932741695082	-2.874833153075917
0.369	-2.873283330175067	-2.8748311687330164
0.37	-2.873283330175067	-2.874828471625583
0.371	-2.873283330175067	-2.8748250527222647
0.372	-2.873283330175067	-2.8748225646378582
0.373	-2.873283330175067	-2.874819678795673
0.374	-2.873283330175067	-2.8748164123337836
0.375	-2.873283330175067	-2.8748131283280696
0.376	-2.8778506993278206	-2.874809843873972
0.377	-2.873283330175067	-2.874806922047307
0.378	-2.873283330175067	-2.874804677824736
0.379	-2.873283330175067	-2.874802139625351
0.38	-2.8778506993278206	-2.8748003067488184
0.381	-2.8778506993278206	-2.874798833560659
0.382	-2.873283330175067	-2.874797080922834
0.383	-2.8778506993278206	-2.8747953915074014
0.384	-2.873283330175067	-2.8747934195423257
0.385	-2.873283330175067	-2.874790819213067
0.386	-2.873283330175067	-2.8747875906004627
0.387	-2.8778506993278206	-2.8747837251790442
0.388	-2.873283330175067	-2.8747795517972157
0.389	-2.8687159619031544	-2.8747747243429354
0.39	-2.877304926794711	-2.874769242599535
0.391	-2.873283330175067	-2.874763781183357
0.392	-2.873283330175067	-2.8747583227499915
0.393	-2.873283330175067	-2.8747525124960247
0.394	-2.873283330175067	-2.874746961851272
0.395	-2.873283330175067	-2.874742321026225
0.396	-2.8687159619031544	-2.8747369157200815
0.397	-2.873283330175067	-2.874732091419322
0.398	-2.873283330175067	-2.874727218761107
0.399	-2.8818932741695082	-2.8747229598728508
0.4	-2.873283330175067	-2.8747179935113407
0.401	-2.873283330175067	-2.8747126603704025
0.402	-2.886481622433429	-2.8747079330291836
0.403	-2.8687159619031544	-2.8747028276007973
0.404	-2.873283330175067	-2.8746983236323604
0.405	-2.873283330175067	-2.874693064349485
0.406	-2.8687159619031544	-2.8746893368854716
0.407	-2.873283330175067	-2.8746864889736172
0.408	-2.873283330175067	-2.8746835339305226
0.409	-2.8778506993278206	-2.87468014690394
0.41	-2.873283330175067	-2.87467765028258
0.411	-2.8778506993278206	-2.8746750690560283
0.412	-2.8778506993278206	-2.874673724198961
0.413	-2.873283330175067	-2.874673600194231
0.414	-2.873283330175067	-2.8746733779542186
0.415	-2.8778506993278206	-2.8746727290669467
0.416	-2.8778506993278206	-2.8746716625369424
0.417	-2.873283330175067	-2.8746701873262333
0.418	-2.8778506993278206	-2.8746696176250066
0.419	-2.8778506993278206	-2.874669927978552
0.42	-2.873283330175067	-2.874671432087638
0.421	-2.8778506993278206	-2.8746731315611886
0.422	-2.8778506993278206	-2.8746750187262715
0.423	-2.8778506993278206	-2.8746770859524564
0.424	-2.873283330175067	-2.8746793256518117
0.425	-2.8778506993278206	-2.8746810468395263
0.426	-2.873283330175067	-2.8746835456623385
0.427	-2.8687159619031544	-2.874685815457001
0.428	-2.873283330175067	-2.874687204938313
0.429	-2.873283330175067	-2.874689024296527
0.43	-2.873283330175067	-2.8746905655882755
0.431	-2.886481622433429	-2.874691860972666
0.432	-2.873283330175067	-2.874694194589224
0.433	-2.873283330175067	-2.874696243080016
0.434	-2.8687159619031544	-2.8746983451338486
0.435	-2.873283330175067	-2.8747008309605944
0.436	-2.873283330175067	-2.8747033474158794
0.437	-2.873283330175067	-2.8747062333584448
0.438	-2.873283330175067	-2.8747091442927872
0.439	-2.873283330175067	-2.874710745090192
0.44	-2.873283330175067	-2.874712340890941
0.441	-2.8687159619031544	-2.8747135956841383
0.442	-2.873283330175067	-2.8747151817571477
0.443	-2.873283330175067	-2.87471647998739
0.444	-2.8778506993278206	-2.8747172261096794
0.445	-2.873283330175067	-2.8747167796191486
0.446	-2.873283330175067	-2.8747164870632202
0.447	-2.873283330175067	-2.874715358598911
0.448	-2.873283330175067	-2.8747140417735557
0.449	-2.8778506993278206	-2.8747118926442337
0.45	-2.8778506993278206	-2.8747099046582747
0.451	-2.8778506993278206	-2.8747077467424775
0.452	-2.873283330175067	-2.874704801876194
0.453	-2.873283330175067	-2.874702063524432
0.454	-2.873283330175067	-2.8746988991772024
0.455	-2.873283330175067	-2.874694992013314
0.456	-2.8778506993278206	-2.874690359090544
0.457	-2.8778506993278206	-2.874685639218561
0.458	-2.8778506993278206	-2.8746811623959947
0.459	-2.873283330175067	-2.8746762462869584
0.46	-2.8778506993278206	-2.8746706075801716
0.461	-2.877304926794711	-2.8746662222417427
0.462	-2.873283330175067	-2.8746614492850115
0.463	-2.873283330175067	-2.874655330541375
0.464	-2.873283330175067	-2.8746491865654535
0.465	-2.8602051856044928	-2.874643347236223
0.466	-2.873283330175067	-2.8746388047930425
0.467	-2.873283330175067	-2.87463491416989
0.468	-2.8687159619031544	-2.8746310064949214
0.469	-2.873283330175067	-2.874626126853699
0.47	-2.873283330175067	-2.874620300759391
0.471	-2.873283330175067	-2.874614865859511
0.472	-2.873283330175067	-2.8746094857290494
0.473	-2.873283330175067	-2.874604161402002
0.474	-2.8687159619031544	-2.874598547931989
0.475	-2.873283330175067	-2.8745929922908804
0.476	-2.8687159619031544	-2.8745868836962534
0.477	-2.873283330175067	-2.8745808762770455
0.478	-2.873283330175067	-2.874574633486551
0.479	-2.873283330175067	-2.8745682065901854
0.48	-2.8602051856044928	-2.874561948314907
0.481	-2.8687159619031544	-2.8745561641360835
0.482	-2.873283330175067	-2.874549181828346
0.483	-2.873283330175067	-2.874541992752112
0.484	-2.873283330175067	-2.874534952081658
0.485	-2.8778506993278206	-2.874527394092942
0.486	-2.8778506993278206	-2.874519365064133
0.487	-2.873283330175067	-2.874510516717607
0.488	-2.873283330175067	-2.874501861822762
0.489	-2.873283330175067	-2.8744947459418126
0.49	-2.8778506993278206	-2.874488211869488
0.491	-2.873283330175067	-2.874481922738306
0.492	-2.873283330175067	-2.874475225343279
0.493	-2.8778506993278206	-2.874469095348366
0.494	-2.886481622433429	-2.874462841346526
0.495	-2.873283330175067	-2.8744571387669815
0.496	-2.886481622433429	-2.8744516336616983
0.497	-2.873283330175067	-2.874446655522022
0.498	-2.8778506993278206	-2.874441850442419
0.499	-2.873283330175067	-2.8744372019763613
0.5	-2.873283330175067	-2.87443269367732
0.501	-2.873283330175067	-2.8744286550791425
0.502	-2.886481622433429	-2.874424732318795
0.503	-2.873283330175067	-2.8744209175136204
0.504	-2.873283330175067	-2.8744168653219555
0.505	-2.873283330175067	-2.8744129137990173
0.506	-2.873283330175067	-2.8744090635410173
0.507	-2.886481622433429	-2.8744053151441675
0.508	-2.8818932741695082	-2.8744013232243044
0.509	-2.873283330175067	-2.87439776325315
0.51	-2.8818932741695082	-2.8743939438661648
0.511	-2.873283330175067	-2.8743888658402375
0.512	-2.873283330175067	-2.874383196900311
0.513	-2.873283330175067	-2.874376938904506
0.514	-2.8818932741695082	-2.874371090268498
0.515	-2.886481622433429	-2.8743639821628864
0.516	-2.873283330175067	-2.8743559391138906
0.517	-2.873283330175067	-2.8743476073197134
0.518	-2.8687159619031544	-2.874339022506786
0.519	-2.8687159619031544	-2.874330495851217
0.52	-2.8687159619031544	-2.87432238175716
0.521	-2.8687159619031544	-2.874314005251514
0.522	-2.873283330175067	-2.874305720738432
0.523	-2.8687159619031544	-2.8742975412019147
0.524	-2.8818932741695082	-2.874289137706262
0.525	-2.8687159619031544	-2.8742808601519325
0.526	-2.873283330175067	-2.8742723709388303
0.527	-2.873283330175067	-2.8742640243851123
0.528	-2.873283330175067	-2.8742558288285567
0.529	-2.873283330175067	-2.874247750732762
0.53	-2.873283330175067	-2.874240138496534
0.531	-2.873283330175067	-2.874232012412767
0.532	-2.873283330175067	-2.874224747644949
0.533	-2.873283330175067	-2.8742179980612628
0.534	-2.873283330175067	-2.8742104338982726
0.535	-2.873283330175067	-2.874203383638746
0.536	-2.886481622433429	-2.874198147159985
0.537	-2.8818932741695082	-2.8741940981079552
0.538	-2.873283330175067	-2.8741902242343498
0.539	-2.873283330175067	-2.8741858724889857
0.54	-2.873283330175067	-2.8741813447012254
0.541	-2.8818932741695082	-2.8741759907026556
0.542	-2.8687159619031544	-2.8741707931187546
0.543	-2.886481622433429	-2.8741653973391066
0.544	-2.8687159619031544	-2.8741601406715476
0.545	-2.8818932741695082	-2.8741553291918662
0.546	-2.886481622433429	-2.874150664101809
0.547	-2.873283330175067	-2.874145799307448
0.548	-2.8687159619031544	-2.8741407346527303
0.549	-2.8687159619031544	-2.874135815919477
0.55	-2.873283330175067	-2.874131042909135
0.551	-2.873283330175067	-2.874126077964145
0.552	-2.873283330175067	-2.874120929364821
0.553	-2.873283330175067	-2.874115951329356
0.554	-2.8818932741695082	-2.8741108146365577
0.555	-2.873283330175067	-2.874105864940747
0.556	-2.873283330175067	-2.874100418476487
0.557	-2.873283330175067	-2.8740951667934724
0.558	-2.8778506993278206	-2.8740901265233862
0.559	-2.873283330175067	-2.8740849683175362
0.56	-2.873283330175067	-2.8740800462241105
0.561	-2.8778506993278206	-2.8740750308519165
0.562	-2.8778506993278206	-2.8740699217048955
0.563	-2.873283330175067	-2.874065691847201
0.564	-2.873283330175067	-2.8740616886130583
0.565	-2.8778506993278206	-2.874059243184888
0.566	-2.8778506993278206	-2.8740566850913014
0.567	-2.873283330175067	-2.874054647571401
0.568	-2.873283330175067	-2.8740524911786367
0.569	-2.873283330175067	-2.8740505404421204
0.57	-2.873283330175067	-2.8740487779781527
0.571	-2.873283330175067	-2.8740471864031685
0.572	-2.873283330175067	-2.8740457483335335
0.573	-2.873283330175067	-2.874044104366454
0.574	-2.873283330175067	-2.874042920415586
0.575	-2.873283330175067	-2.8740418375781136
0.576	-2.873283330175067	-2.8740418281376763
0.577	-2.873283330175067	-2.874041256566536
0.578	-2.873283330175067	-2.874041103712267
0.579	-2.8687159619031544	-2.8740420145951164
0.58	-2.8818932741695082	-2.8740423134482005
0.581	-2.886481622433429	-2.874042674972384
0.582	-2.873283330175067	-2.874043090429149
0.583	-2.8687159619031544	-2.874043205099802
0.584	-2.873283330175067	-2.8740443313364494
0.585	-2.873283330175067	-2.8740454692254347
0.586	-2.873283330175067	-2.874045964833478
0.587	-2.873283330175067	-2.8740464556372394
0.588	-2.873283330175067	-2.8740469499410075
0.589	-2.873283330175067	-2.8740481007141465
0.59	-2.873283330175067	-2.8740492600660996
0.591	-2.873283330175067	-2.874051406979596
0.592	-2.8778506993278206	-2.874053887643474
0.593	-2.873283330175067	-2.8740563731479485
0.594	-2.8778506993278206	-2.8740591664718114
0.595	-2.8778506993278206	-2.874061954018227
0.596	-2.8778506993278206	-2.8740653730818577
0.597	-2.8778506993278206	-2.8740690789128673
0.598	-2.8778506993278206	-2.8740727783492392
0.599	-2.873283330175067	-2.87407615115577
0.6	-2.8778506993278206	-2.87407922303513
0.601	-2.8778506993278206	-2.8740820111261183
0.602	-2.8692522071061446	-2.8740858393316877
0.603	-2.8824180693572306	-2.8740893765433406
0.604	-2.8778506993278206	-2.874092614372913
0.605	-2.8692522071061446	-2.874095552910979
0.606	-2.8778042751355875	-2.8740985381860513
0.607	-2.873283330175067	-2.874101224265894
0.608	-2.8778506993278206	-2.8741046024116605
0.609	-2.8778506993278206	-2.8741080350155594
0.61	-2.8778506993278206	-2.874111176183166
0.611	-2.8778506993278206	-2.874114017436627
0.612	-2.8778506993278206	-2.874116558776826
0.613	-2.8778506993278206	-2.874118808683583
0.614	-2.8778506993278206	-2.874119791920098
0.615	-2.873283330175067	-2.874120845472896
0.616	-2.873283330175067	-2.8741223150729223
0.617	-2.873283330175067	-2.8741232209575163
0.618	-2.8602051856044928	-2.874122884821938
0.619	-2.8602051856044928	-2.8741226434499128
0.62	-2.8778506993278206	-2.8741211837776497
0.621	-2.8778506993278206	-2.8741192217725553
0.622	-2.873283330175067	-2.8741170815957764
0.623	-2.8778506993278206	-2.8741151170087624
0.624	-2.873283330175067	-2.8741129983337124
0.625	-2.8778042751355875	-2.8741107333092653
0.626	-2.864751765747872	-2.874107685945661
0.627	-2.8778506993278206	-2.874105490605511
0.628	-2.8647055528617393	-2.874103511256489
0.629	-2.864751765747872	-2.874100418316341
0.63	-2.864751765747872	-2.8740978778654527
0.631	-2.8778506993278206	-2.8740952139953335
0.632	-2.8778506993278206	-2.8740920967353656
0.633	-2.873283330175067	-2.8740895714298658
0.634	-2.864751765747872	-2.8740873165870875
0.635	-2.8778506993278206	-2.8740853481742232
0.636	-2.8602051856044928	-2.874082990197715
0.637	-2.8602051856044928	-2.874080933457766