TITLE = "Breathing Cycles Analysis"
VARIABLES = "Cycle_Number", "Peak_Time", "Peak_Amplitude", "Cycle_Duration", "Tidal_Volume"
ZONE T="Breathing Cycles Data"
1	0.178	-3.9259966871714322	2.387	0.004763999627836135
2	2.565	-3.9265862955491615	1.302	0.0037680949251202023
3	3.867	-3.9259675375088796	2.0620000000000003	0.008746792757289068
4	5.929	-3.926473465522629	2.2279999999999998	0.011866113019291191
5	8.157	-3.935876747371095	0.8040000000000003	0.002031645728426845
6	8.961	-3.935267445514473	1.4000000000000004	0.003088923920828268
7	10.361	-3.9334304323734477	0.9799999999999986	0.0041669767397456425
8	11.341	-3.9330270206465237	1.4890000000000008	0.001852755443376708
9	12.83	-3.9315669941835205	1.1910000000000007	0.0016277194139782125
10	14.021	-3.9303242890241767	2.2940000000000005	0.001483809909820888
11	16.315	-3.9261818127104284	1.2189999999999976	0.001967593173707094
12	17.534	-3.921836067909136	1.5070000000000014	0.0030869666205424195
13	19.041	-3.921560445292839	1.2010000000000005	0.003285466947484661
14	20.242	-3.9222784653526865	1.9349999999999987	0.01708597762040931
15	22.177	-3.9353247574273165	1.2669999999999995	0.007010951699863099
16	23.444	-3.937414578495331	0.8200000000000003	0.00646222168598376
17	24.264	-3.94140746160502	0.8219999999999992	0.002469338576295055
18	25.086	-3.9417453988738647	2.157	0.004044030966445344
19	27.243	-3.9437610847178286	2.9400000000000013	0.0017883491687102904
20	30.183	-3.938242104706635	0.972999999999999	-0.007609776048555172
21	31.156	-3.9369891125641607	1.7980000000000018	-0.006356783906080743
22	32.954	-3.928642572858667	1.2409999999999997	0.001989755799412851
23	34.195	-3.9287902786135165	2.771000000000001	0.0029544435623063414
24	36.966	-3.930004051120609	1.0570000000000022	0.0033932356864245783
25	38.023	-3.9314731178437112	1.350999999999999	0.005845944929069979
26	39.374	-3.934347119646611	1.225999999999999	0.0056241882167786805
27	40.6	-3.9360089934236377	0.8170000000000002	0.012446035321695526
28	41.417	-3.9375896374841397	2.6999999999999957	0.010865391261193569
29	44.117	-3.9452451795544743	1.9110000000000014	0.003209849190858982
30	46.028	-3.947374883024084	1.3030000000000044	0.0028355395109427306
31	47.331	-3.9480751183399487	1.1829999999999998	0.003689751630481908
32	48.514	-3.9490829717195455	1.6489999999999938	0.002211760372914817
33	50.163	-3.9487280899643986	2.767000000000003	0.0031974518894779536
34	52.93	-3.947131016627964	1.945999999999998	-0.0032993108116254888
35	54.876	-3.9415292698949527	1.0519999999999996	0.0023024359213859036
36	55.928	-3.937734839743843	1.1739999999999995	0.0022315194105564373
37	57.102	-3.937232660169373	1.7320000000000064	0.007534851756993088
