TITLE = "Breathing Cycles Analysis"
VARIABLES = "Cycle_Number", "Peak_Time", "Peak_Amplitude", "Cycle_Duration", "Tidal_Volume"
ZONE T="Breathing Cycles Data"
1	0.666	-2.8740128982797213	2.297	0.0028064552503694884
2	2.963	-2.87840055246497	2.018	0.003522038608227529
3	4.981	-2.8779732592232374	2.521	0.00757296063588786
4	7.502	-2.8814129162247157	2.473	0.00047124227832817667
5	9.975	-2.8783997126590917	2.1240000000000006	0.0006962192676271961
6	12.099	-2.8745537658724913	2.519	0.0045421660542275255
7	14.618	-2.8764173294284365	6.165000000000001	0.0034073093733972826
8	20.783	-2.8774540704822154	2.221	0.0067182204039943905
9	23.004	-2.8801275224190186	2.421999999999997	0.0002927937995504948
10	25.426	-2.8770437277543857	2.5440000000000005	0.0033765884641834276
11	27.97	-2.880140049534426	2.1590000000000025	0.001920773171153467
12	30.129	-2.875813468229657	2.0849999999999973	0.002924137055251741
13	32.214	-2.8781584505077724	3.047000000000004	0.002021150897946189
14	35.261	-2.8720981677807673	2.1799999999999997	0.00513384278456952
15	37.441	-2.87531138050996	2.8859999999999957	0.002953435653548553
16	40.327	-2.873576213384289	2.801000000000002	0.006279974374860053
17	43.128	-2.8752024962592797	4.957000000000001	0.007309752442402839
18	48.085	-2.8750922697238077	4.4510000000000005	0.006822378486983638
19	52.536	-2.87717327795632	3.5150000000000006	0.003206558754585309
20	56.051	-2.87535864050875	3.6199999999999974	0.004707117395278182
