TITLE = "Peak Detection Analysis"
VARIABLES = "Time", "Signal", "Peak_Value"
ZONE T="Peak Detection Data"
0.0	-2.8806588674780325	nan
0.001	-2.8806569741193395	nan
0.002	-2.8806512939384707	nan
0.003	-2.8806418266210527	nan
0.004	-2.8806285716431304	nan
0.005	-2.8806115282711646	nan
0.006	-2.880590695562037	nan
0.007	-2.8805660723630457	nan
0.008	-2.8805376573119053	nan
0.009	-2.8805054488367507	nan
0.01	-2.880469445156132	nan
0.011	-2.8804296442790203	nan
0.012	-2.880386044004801	nan
0.013	-2.88033864192328	nan
0.014	-2.88028743541468	nan
0.015	-2.880232421649641	nan
0.016	-2.8801735975892218	nan
0.017	-2.8801109599848984	nan
0.018	-2.880044505378565	nan
0.019	-2.8799742301025333	nan
0.02	-2.8799001302795335	nan
0.021	-2.8798222018227126	nan
0.022	-2.879740440435636	nan
0.023	-2.879654841612287	nan
0.024	-2.879565400637066	nan
0.025	-2.8794721125847924	nan
0.026	-2.8793774348129135	nan
0.027	-2.879283824574087	nan
0.028	-2.8791912766287577	nan
0.029	-2.8790997857373712	nan
0.03	-2.8790093466603737	nan
0.031	-2.878919954158209	nan
0.032	-2.8788316029913243	nan
0.033	-2.8787442879201643	nan
0.034	-2.878658003705175	nan
0.035	-2.8785727451068017	nan
0.036	-2.8784885068854895	nan
0.037	-2.8784052838016847	nan
0.038	-2.8783230706158314	nan
0.039	-2.8782418620883767	nan
0.04	-2.878161652979765	nan
0.041	-2.8780824380504426	nan
0.042	-2.8780042120608544	nan
0.043	-2.8779269697714467	nan
0.044	-2.8778507059426643	nan
0.045	-2.8777754153349524	nan
0.046	-2.877701092708757	nan
0.047	-2.8776277328245237	nan
0.048	-2.8775553304426977	nan
0.049	-2.877483880323725	nan
0.05	-2.8774133772280504	nan
0.051	-2.87734381591612	nan
0.052	-2.8772751911483794	nan
0.053	-2.8772074976852737	nan
0.054	-2.877140730287248	nan
0.055	-2.8770748837147484	nan
0.056	-2.87700995272822	nan
0.057	-2.8769459320881094	nan
0.058	-2.8768828165548608	nan
0.059	-2.8768206008889208	nan
0.06	-2.8767592798507335	nan
0.061	-2.876698848200746	nan
0.062	-2.8766393006994027	nan
0.063	-2.8765806321071494	nan
0.064	-2.876522837184432	nan
0.065	-2.876465910691695	nan
0.066	-2.8764098473893847	nan
0.067	-2.8763546420379464	nan
0.068	-2.876300289397826	nan
0.069	-2.876246784229468	nan
0.07	-2.8761941212933193	nan
0.071	-2.8761422953498244	nan
0.072	-2.8760913011594287	nan
0.073	-2.8760411334825786	nan
0.074	-2.8759917870797187	nan
0.075	-2.8759432567112952	nan
0.076	-2.8758955371377533	nan
0.077	-2.875848623119538	nan
0.078	-2.8758025094170963	nan
0.079	-2.8757571907908717	nan
0.08	-2.8757126620013107	nan
0.081	-2.875668917808859	nan
0.082	-2.875625952973962	nan
0.083	-2.875583762257065	nan
0.084	-2.875542340418613	nan
0.085	-2.875501682219053	nan
0.086	-2.8754617824188298	nan
0.087	-2.875422635778388	nan
0.088	-2.8753842370581744	nan
0.089	-2.875346581018633	nan
0.09	-2.8753096624202112	nan
0.091	-2.8752734760233536	nan
0.092	-2.875238016588505	nan
0.093	-2.875203278876112	nan
0.094	-2.8751692576466197	nan
0.095	-2.8751359476604734	nan
0.096	-2.8751033436781186	nan
0.097	-2.875071440460001	nan
0.098	-2.8750402327665667	nan
0.099	-2.87500971535826	nan
0.1	-2.874979882995527	nan
0.101	-2.8749507304388136	nan
0.102	-2.8749222524485645	nan
0.103	-2.8748944437852257	nan
0.104	-2.8748672992092428	nan
0.105	-2.874840813481061	nan
0.106	-2.874814981361126	nan
0.107	-2.874789797609883	nan
0.108	-2.8747652569877777	nan
0.109	-2.8747413542552556	nan
0.11	-2.874718084172762	nan
0.111	-2.8746954415007435	nan
0.112	-2.874673420999644	nan
0.113	-2.8746520174299097	nan
0.114	-2.8746312255519864	nan
0.115	-2.8746110401263194	nan
0.116	-2.8745914559133543	nan
0.117	-2.874572467673536	nan
0.118	-2.8745540701673105	nan
0.119	-2.8745362581551235	nan
0.12	-2.87451902639742	nan
0.121	-2.8745023696546457	nan
0.122	-2.874486282687246	nan
0.123	-2.8744707602556674	nan
0.124	-2.874455797120354	nan
0.125	-2.8744413880417516	nan
0.126	-2.8744275277803064	nan
0.127	-2.8744142110964632	nan
0.128	-2.874401432750668	nan
0.129	-2.8743891875033665	nan
0.13	-2.8743774701150033	nan
0.131	-2.8743662753460244	nan
0.132	-2.8743555979568756	nan
0.133	-2.874345432708002	nan
0.134	-2.874335774359849	nan
0.135	-2.874326617672862	nan
0.136	-2.874317957407488	nan
0.137	-2.8743097883241706	nan
0.138	-2.8743021051833564	nan
0.139	-2.8742949027454903	nan
0.14	-2.874288175771018	nan
0.141	-2.874281919020385	nan
0.142	-2.874276127254037	nan
0.143	-2.8742707952324196	nan
0.144	-2.8742659177159777	nan
0.145	-2.8742614894651575	nan
0.146	-2.874257505240404	nan
0.147	-2.8742539598021626	nan
0.148	-2.874250847910879	nan
0.149	-2.8742481643269993	nan
0.15	-2.8742459038109684	nan
0.151	-2.874244061123232	nan
0.152	-2.8742426310242353	nan
0.153	-2.8742416082744238	nan
0.154	-2.8742409876342436	nan
0.155	-2.8742407638641394	nan
0.156	-2.8742409317245574	nan
0.157	-2.874241485975943	nan
0.158	-2.874242421378741	nan
0.159	-2.8742437326933974	nan
0.16	-2.874245414680358	nan
0.161	-2.8742474621000684	nan
0.162	-2.8742498697129735	nan
0.163	-2.874252632279519	nan
0.164	-2.8742557445601506	nan
0.165	-2.874259201315313	nan
0.166	-2.8742629973054528	nan
0.167	-2.8742671272910147	nan
0.168	-2.874271586032445	nan
0.169	-2.8742763682901886	nan
0.17	-2.8742814688246914	nan
0.171	-2.8742868823963987	nan
0.172	-2.874292603765756	nan
0.173	-2.8742986276932085	nan
0.174	-2.874304948939202	nan
0.175	-2.874311562264182	nan
0.176	-2.8743184624287754	nan
0.177	-2.874326283113185	nan
0.178	-2.874333059060451	nan
0.179	-2.8743404660149854	nan
0.18	-2.8743478101540125	nan
0.181	-2.8743544321680963	nan
0.182	-2.8743619906198985	nan
0.183	-2.874369148514361	nan
0.184	-2.87437688987116	nan
0.185	-2.874384886325824	nan
0.186	-2.874393145568813	nan
0.187	-2.874401331045157	nan
0.188	-2.8744097998922227	nan
0.189	-2.8744182540859344	nan
0.19	-2.874426341482498	nan
0.191	-2.8744347098197975	nan
0.192	-2.87444337784845	nan
0.193	-2.8744527019631807	nan
0.194	-2.8744623553469393	nan
0.195	-2.8744720097786014	nan
0.196	-2.8744820136474987	nan
0.197	-2.874492032088492	nan
0.198	-2.874501424151891	nan
0.199	-2.874511532440509	nan
0.2	-2.8745217217159778	nan
0.201	-2.87453165015069	nan
0.202	-2.87454165946121	nan
0.203	-2.8745520829899593	nan
0.204	-2.8745632246264137	nan
0.205	-2.874574096997332	nan
0.206	-2.8745846879870136	nan
0.207	-2.874594010431799	nan
0.208	-2.874603052079644	nan
0.209	-2.8746128007832943	nan
0.21	-2.874623606929292	nan
0.211	-2.8746351377350345	nan
0.212	-2.8746464068489486	nan
0.213	-2.874658402953884	nan
0.214	-2.8746701400306636	nan
0.215	-2.874681607317646	nan
0.216	-2.8746927941579834	nan
0.217	-2.8747040274585576	nan
0.218	-2.874715950611182	nan
0.219	-2.8747275782859463	nan
0.22	-2.8747385629514755	nan
0.221	-2.8747492405780646	nan
0.222	-2.874759601260426	nan
0.223	-2.8747699811784373	nan
0.224	-2.8747803792002626	nan
0.225	-2.874790110901978	nan
0.226	-2.8748005227076536	nan
0.227	-2.874810006821601	nan
0.228	-2.8748208686519376	nan
0.229	-2.8748314267723254	nan
0.23	-2.8748423694709073	nan
0.231	-2.8748543506697772	nan
0.232	-2.8748650231268424	nan
0.233	-2.8748757186594007	nan
0.234	-2.874885794112682	nan
0.235	-2.8748959188208567	nan
0.236	-2.8749057427710714	nan
0.237	-2.8749153006249726	nan
0.238	-2.874924872650819	nan
0.239	-2.874934752328754	nan
0.24	-2.8749449414255523	nan
0.241	-2.8749557456657713	nan
0.242	-2.874966143036417	nan
0.243	-2.8749757646608196	nan
0.244	-2.8749852624378174	nan
0.245	-2.8749946063783636	nan
0.246	-2.875004435744944	nan
0.247	-2.87501444433286	nan
0.248	-2.875024923882622	nan
0.249	-2.8750345201460346	nan
0.25	-2.8750441942798144	nan
0.251	-2.875053584757651	nan
0.252	-2.8750633180876997	nan
0.253	-2.8750723637346347	nan
0.254	-2.8750811008437176	nan
0.255	-2.8750895238023046	nan
0.256	-2.8750992836414992	nan
0.257	-2.8751107122990347	nan
0.258	-2.8751214819767985	nan
0.259	-2.875131570839674	nan
0.26	-2.875140280874007	nan
0.261	-2.8751472513597722	nan
0.262	-2.875154150565706	nan
0.263	-2.8751603343719694	nan
0.264	-2.8751657952772502	nan
0.265	-2.875170518359755	nan
0.266	-2.8751751434097166	nan
0.267	-2.8751796883861527	nan
0.268	-2.8751835089300677	nan
0.269	-2.8751872520924735	nan
0.27	-2.875190639578447	nan
0.271	-2.8751943305433074	nan
0.272	-2.8751973591967634	nan
0.273	-2.87520038861747	nan
0.274	-2.875203082107195	nan
0.275	-2.8752064698039685	nan
0.276	-2.8752092051645572	nan
0.277	-2.8752119111128307	nan
0.278	-2.875213258717062	nan
0.279	-2.8752142397902194	nan
0.28	-2.8752148463258838	nan
0.281	-2.8752150702751362	nan
0.282	-2.8752155869859366	nan
0.283	-2.8752154132566177	nan
0.284	-2.875214558610752	nan
0.285	-2.8752133210659476	nan
0.286	-2.8752113936856527	nan
0.287	-2.8752097174799616	nan
0.288	-2.8752072960771646	nan
0.289	-2.8752044585566545	nan
0.29	-2.8752005603527433	nan
0.291	-2.875194563421241	nan
0.292	-2.8751891541580705	nan
0.293	-2.8751836924163787	nan
0.294	-2.8751781769302904	nan
0.295	-2.8751729438875957	nan
0.296	-2.8751666361867674	nan
0.297	-2.875160212125448	nan
0.298	-2.875154009384273	nan
0.299	-2.8751480680147865	nan
0.3	-2.8751417601646825	nan
0.301	-2.8751354460049487	nan
0.302	-2.8751287760704	nan
0.303	-2.8751217967846663	nan
0.304	-2.875114800125218	nan
0.305	-2.8751087849322943	nan
0.306	-2.875101772354197	nan
0.307	-2.8750947612673587	nan
0.308	-2.8750887521227266	nan
0.309	-2.8750827769098213	nan
0.31	-2.8750771814101967	nan
0.311	-2.875072311447839	nan
0.312	-2.8750664998379913	nan
0.313	-2.875060101498331	nan
0.314	-2.875054414631984	nan
0.315	-2.875048808691435	nan
0.316	-2.8750432749604506	nan
0.317	-2.8750368225987146	nan
0.318	-2.875030432433649	nan
0.319	-2.8750234579327247	nan
0.32	-2.875017515064797	nan
0.321	-2.875011616870148	nan
0.322	-2.8750050856263996	nan
0.323	-2.874998249910834	nan
0.324	-2.8749917757172403	nan
0.325	-2.8749852996622174	nan
0.326	-2.8749784668837988	nan
0.327	-2.8749712684578936	nan
0.328	-2.8749650165509024	nan
0.329	-2.874958711063464	nan
0.33	-2.8749517155293973	nan
0.331	-2.874944681753444	nan
0.332	-2.8749376093330126	nan
0.333	-2.874931473018258	nan
0.334	-2.87492591741759	nan
0.335	-2.8749206446257602	nan
0.336	-2.874916299150684	nan
0.337	-2.8749118998128504	nan
0.338	-2.8749078096007668	nan
0.339	-2.874904045565197	nan
0.34	-2.8749015984019852	nan
0.341	-2.8749002111343027	nan
0.342	-2.874898205155195	nan
0.343	-2.8748965751838473	nan
0.344	-2.87489499366165	nan
0.345	-2.874893133035203	nan
0.346	-2.8748916967226084	nan
0.347	-2.874890018172364	nan
0.348	-2.874888097153111	nan
0.349	-2.8748858936035795	nan
0.35	-2.8748840438877816	nan
0.351	-2.8748825423266164	nan
0.352	-2.8748807588623118	nan
0.353	-2.874879333070698	nan
0.354	-2.8748772788509127	nan
0.355	-2.8748759166005664	nan
0.356	-2.8748736182654344	nan
0.357	-2.8748697065605096	nan
0.358	-2.874865514222413	nan
0.359	-2.8748613661336737	nan
0.36	-2.874856907705016	nan
0.361	-2.8748524762653487	nan
0.362	-2.8748490468373236	nan
0.363	-2.874845909800099	nan
0.364	-2.8748427504356813	nan
0.365	-2.8748402150444488	nan
0.366	-2.8748376733834737	nan
0.367	-2.8748357617061853	nan
0.368	-2.8748331530771423	nan
0.369	-2.874831168734242	nan
0.37	-2.8748284716268087	nan
0.371	-2.8748250527234904	nan
0.372	-2.8748225646390835	nan
0.373	-2.8748196787968987	nan
0.374	-2.8748164123350093	nan
0.375	-2.8748131283292953	nan
0.376	-2.8748098438751977	nan
0.377	-2.8748069220485326	nan
0.378	-2.8748046778259617	nan
0.379	-2.874802139626577	nan
0.38	-2.874800306750044	nan
0.381	-2.8747988335618846	nan
0.382	-2.8747970809240595	nan
0.383	-2.874795391508627	nan
0.384	-2.874793419543551	nan
0.385	-2.874790819214293	nan
0.386	-2.8747875906016884	nan
0.387	-2.8747837251802695	nan
0.388	-2.8747795517984414	nan
0.389	-2.874774724344161	nan
0.39	-2.8747692426007605	nan
0.391	-2.874763781184582	nan
0.392	-2.8747583227512172	nan
0.393	-2.8747525124972504	nan
0.394	-2.8747469618524972	nan
0.395	-2.8747423210274508	nan
0.396	-2.8747369157213067	nan
0.397	-2.874732091420547	nan
0.398	-2.8747272187623323	nan
0.399	-2.8747229598740756	nan
0.4	-2.8747179935125655	nan
0.401	-2.8747126603716278	nan
0.402	-2.874707933030409	nan
0.403	-2.874702827602022	nan
0.404	-2.8746983236335852	nan
0.405	-2.8746930643507103	nan
0.406	-2.874689336886697	nan
0.407	-2.8746864889748425	nan
0.408	-2.874683533931748	nan
0.409	-2.874680146905165	nan
0.41	-2.8746776502838047	nan
0.411	-2.874675069057253	nan
0.412	-2.874673724200186	nan
0.413	-2.874673600195456	nan
0.414	-2.874673377955444	nan
0.415	-2.874672729068172	nan
0.416	-2.8746716625381676	nan
0.417	-2.8746701873274585	nan
0.418	-2.8746696176262314	nan
0.419	-2.874669927979777	nan
0.42	-2.8746714320888627	nan
0.421	-2.8746731315624134	nan
0.422	-2.8746750187274968	nan
0.423	-2.8746770859536817	nan
0.424	-2.8746793256530365	nan
0.425	-2.874681046840751	nan
0.426	-2.8746835456635638	nan
0.427	-2.8746858154582258	nan
0.428	-2.874687204939538	nan
0.429	-2.874689024297752	nan
0.43	-2.8746905655895008	nan
0.431	-2.8746918609738907	nan
0.432	-2.874694194590449	nan
0.433	-2.8746962430812406	nan
0.434	-2.8746983451350734	nan
0.435	-2.8747008309618196	nan
0.436	-2.874703347417104	nan
0.437	-2.87470623335967	nan
0.438	-2.874709144294012	nan
0.439	-2.8747107450914173	nan
0.44	-2.8747123408921658	nan
0.441	-2.8747135956853636	nan
0.442	-2.874715181758373	nan
0.443	-2.874716479988615	nan
0.444	-2.8747172261109046	nan
0.445	-2.874716779620374	nan
0.446	-2.874716487064445	nan
0.447	-2.874715358600136	nan
0.448	-2.8747140417747805	nan
0.449	-2.8747118926454585	nan
0.45	-2.8747099046594995	nan
0.451	-2.8747077467437028	nan
0.452	-2.874704801877419	nan
0.453	-2.874702063525657	nan
0.454	-2.8746988991784277	nan
0.455	-2.8746949920145393	nan
0.456	-2.874690359091769	nan
0.457	-2.874685639219786	nan
0.458	-2.8746811623972195	nan
0.459	-2.8746762462881827	nan
0.46	-2.874670607581396	nan
0.461	-2.874666222242967	nan
0.462	-2.874661449286236	nan
0.463	-2.8746553305426	nan
0.464	-2.874649186566679	nan
0.465	-2.874643347237448	nan
0.466	-2.8746388047942673	nan
0.467	-2.8746349141711147	nan
0.468	-2.8746310064961467	nan
0.469	-2.874626126854924	nan
0.47	-2.8746203007606157	nan
0.471	-2.874614865860736	nan
0.472	-2.8746094857302746	nan
0.473	-2.874604161403227	nan
0.474	-2.8745985479332137	nan
0.475	-2.8745929922921056	nan
0.476	-2.8745868836974786	nan
0.477	-2.8745808762782707	nan
0.478	-2.874574633487776	nan
0.479	-2.8745682065914107	nan
0.48	-2.8745619483161318	nan
0.481	-2.8745561641373087	nan
0.482	-2.874549181829571	nan
0.483	-2.8745419927533367	nan
0.484	-2.874534952082884	nan
0.485	-2.874527394094167	nan
0.486	-2.8745193650653587	nan
0.487	-2.8745105167188325	nan
0.488	-2.8745018618239873	nan
0.489	-2.874494745943038	nan
0.49	-2.874488211870714	nan
0.491	-2.8744819227395317	nan
0.492	-2.8744752253445047	nan
0.493	-2.8744690953495917	nan
0.494	-2.8744628413477518	nan
0.495	-2.874457138768207	nan
0.496	-2.8744516336629236	nan
0.497	-2.8744466555232475	nan
0.498	-2.874441850443645	nan
0.499	-2.874437201977587	nan
0.5	-2.8744326936785454	nan
0.501	-2.8744286550803677	nan
0.502	-2.8744247323200205	nan
0.503	-2.874420917514846	nan
0.504	-2.874416865323181	nan
0.505	-2.8744129138002426	nan
0.506	-2.874409063542243	nan
0.507	-2.874405315145393	nan
0.508	-2.8744013232255297	nan
0.509	-2.8743977632543753	nan
0.51	-2.8743939438673904	nan
0.511	-2.874388865841463	nan
0.512	-2.8743831969015368	nan
0.513	-2.8743769389057316	nan
0.514	-2.8743710902697233	nan
0.515	-2.874363982164112	nan
0.516	-2.8743559391151154	nan
0.517	-2.874347607320938	nan
0.518	-2.874339022508011	nan
0.519	-2.874330495852442	nan
0.52	-2.874322381758385	nan
0.521	-2.8743140052527387	nan
0.522	-2.8743057207396574	nan
0.523	-2.87429754120314	nan
0.524	-2.874289137707487	nan
0.525	-2.8742808601531573	nan
0.526	-2.874272370940056	nan
0.527	-2.8742640243863375	nan
0.528	-2.8742558288297824	nan
0.529	-2.874247750733988	nan
0.53	-2.8742401384977603	nan
0.531	-2.8742320124139926	nan
0.532	-2.874224747646175	nan
0.533	-2.874217998062489	nan
0.534	-2.8742104338994987	nan
0.535	-2.8742033836399723	nan
0.536	-2.874198147161211	nan
0.537	-2.8741940981091814	nan
0.538	-2.874190224235576	nan
0.539	-2.874185872490212	nan
0.54	-2.8741813447024516	nan
0.541	-2.8741759907038817	nan
0.542	-2.8741707931199807	nan
0.543	-2.8741653973403327	nan
0.544	-2.8741601406727737	nan
0.545	-2.8741553291930924	nan
0.546	-2.874150664103035	nan
0.547	-2.8741457993086743	nan
0.548	-2.8741407346539565	nan
0.549	-2.8741358159207033	nan
0.55	-2.8741310429103613	nan
0.551	-2.87412607796537	nan
0.552	-2.8741209293660472	nan
0.553	-2.874115951330582	nan
0.554	-2.874110814637784	nan
0.555	-2.8741058649419733	nan
0.556	-2.8741004184777132	nan
0.557	-2.8740951667946986	nan
0.558	-2.8740901265246124	nan
0.559	-2.8740849683187624	nan
0.56	-2.8740800462253366	nan
0.561	-2.8740750308531426	nan
0.562	-2.8740699217061216	nan
0.563	-2.8740656918484273	nan
0.564	-2.8740616886142845	nan
0.565	-2.8740592431861143	nan
0.566	-2.8740566850925275	nan
0.567	-2.874054647572627	nan
0.568	-2.874052491179863	nan
0.569	-2.8740505404433465	nan
0.57	-2.8740487779793797	nan
0.571	-2.874047186404395	nan
0.572	-2.87404574833476	nan
0.573	-2.8740441043676803	nan
0.574	-2.8740429204168123	nan
0.575	-2.8740418375793397	nan
0.576	-2.8740418281389024	nan
0.577	-2.874041256567762	nan
0.578	-2.874041103713493	nan
0.579	-2.8740420145963426	nan
0.58	-2.8740423134494266	nan
0.581	-2.87404267497361	nan
0.582	-2.874043090430375	nan
0.583	-2.874043205101028	nan
0.584	-2.8740443313376756	nan
0.585	-2.874045469226661	nan
0.586	-2.8740459648347043	nan
0.587	-2.8740464556384655	nan
0.588	-2.8740469499422336	nan
0.589	-2.8740481007153726	nan
0.59	-2.8740492600673258	nan
0.591	-2.874051406980822	nan
0.592	-2.8740538876447	nan
0.593	-2.8740563731491746	nan
0.594	-2.8740591664730375	nan
0.595	-2.874061954019453	nan
0.596	-2.874065373083084	nan
0.597	-2.8740690789140935	nan
0.598	-2.8740727783504654	nan
0.599	-2.8740761511569963	nan
0.6	-2.8740792230363557	nan
0.601	-2.8740820111273444	nan
0.602	-2.874085839332914	nan
0.603	-2.8740893765445663	nan
0.604	-2.8740926143741388	nan
0.605	-2.8740955529122045	nan
0.606	-2.874098538187277	nan
0.607	-2.8741012242671196	nan
0.608	-2.8741046024128862	nan
0.609	-2.874108035016785	nan
0.61	-2.8741111761843916	nan
0.611	-2.8741140174378526	nan
0.612	-2.8741165587780517	nan
0.613	-2.8741188086848086	nan
0.614	-2.874119791921323	nan
0.615	-2.874120845474122	nan
0.616	-2.874122315074148	nan
0.617	-2.874123220958742	nan
0.618	-2.8741228848231635	nan
0.619	-2.8741226434511384	nan
0.62	-2.874121183778875	nan
0.621	-2.8741192217737814	nan
0.622	-2.874117081597003	nan
0.623	-2.874115117009989	nan
0.624	-2.874112998334939	nan
0.625	-2.874110733310492	nan
0.626	-2.8741076859468877	nan
0.627	-2.8741054906067376	nan
0.628	-2.8741035112577156	nan
0.629	-2.8741004183175676	nan
0.63	-2.8740978778666797	nan
0.631	-2.87409521399656	nan
0.632	-2.874092096736592	nan
0.633	-2.874089571431093	nan
0.634	-2.874087316588314	nan
0.635	-2.87408534817545	nan
0.636	-2.8740829901989415	nan
0.637	-2.8740809334589925	nan
0.638	-2.8740791439738973	nan
0.639	-2.8740773149219296	nan
0.64	-2.874075445094963	nan
0.641	-2.874073541763739	nan
0.642	-2.874070612959487	nan
0.643	-2.8740679524381805	nan
0.644	-2.874065255791556	nan
0.645	-2.874061836999331	nan
0.646	-2.874058030817397	nan
0.647	-2.874054180443498	nan
0.648	-2.874050914946563	nan
0.649	-2.8740472319190804	nan
0.65	-2.8740434676591553	nan
0.651	-2.874040247001495	nan
0.652	-2.8740365732681954	nan
0.653	-2.8740330754156753	nan
0.654	-2.874030426516151	nan
0.655	-2.8740282788286518	nan
0.656	-2.874026622113645	nan
0.657	-2.874024455498457	nan
0.658	-2.8740213892253315	nan
0.659	-2.874018725506917	nan
0.66	-2.874016453986676	nan
0.661	-2.8740149103308785	nan
0.662	-2.874013755372917	nan
0.663	-2.874012995968996	nan
0.664	-2.8740132681901924	nan
0.665	-2.8740132333007615	nan
0.666	-2.8740128982797213	-2.8740128982797213
0.667	-2.874012953502969	nan
0.668	-2.8740140436431987	nan
0.669	-2.8740148385664144	nan
0.67	-2.8740170039240756	nan
0.671	-2.874020492673819	nan
0.672	-2.874024012189291	nan
0.673	-2.8740285611112792	nan
0.674	-2.8740335007327564	nan
0.675	-2.874038830082938	nan
0.676	-2.8740442022531636	nan
0.677	-2.8740492618134033	nan
0.678	-2.8740543367305076	nan
0.679	-2.874060417289209	nan
0.68	-2.8740665274887887	nan
0.681	-2.87407300394028	nan
0.682	-2.8740798373168435	nan
0.683	-2.8740866723537626	nan
0.684	-2.8740944910222144	nan
0.685	-2.874102952693889	nan
0.686	-2.8741117496026765	nan
0.687	-2.874121178936628	nan
0.688	-2.874129653261657	nan
0.689	-2.874138460412854	nan
0.69	-2.8741475913561954	nan
0.691	-2.8741576893074905	nan
0.692	-2.8741697622476523	nan
0.693	-2.8741808934924946	nan
0.694	-2.874192082593064	nan
0.695	-2.874202354170773	nan
0.696	-2.874211725529841	nan
0.697	-2.874220839884961	nan
0.698	-2.8742296882009915	nan
0.699	-2.8742392450743433	nan
0.7	-2.8742491463959414	nan
0.701	-2.874260075166693	nan
0.702	-2.874270711487918	nan
0.703	-2.8742814009816358	nan
0.704	-2.8742918143520506	nan
0.705	-2.874301959719807	nan
0.706	-2.8743118451630494	nan
0.707	-2.874322469393064	nan
0.708	-2.8743341880409883	nan
0.709	-2.8743456796341906	nan
0.71	-2.874356952366897	nan
0.711	-2.8743680143908334	nan
0.712	-2.8743792027528623	nan
0.713	-2.8743911623159795	nan
0.714	-2.87440487353761	nan
0.715	-2.8744187094683866	nan
0.716	-2.8744330074372977	nan
0.717	-2.8744470753960747	nan
0.718	-2.8744622403400446	nan
0.719	-2.874477511616423	nan
0.72	-2.8744935344928875	nan
0.721	-2.874508663050418	nan
0.722	-2.8745248535367676	nan
0.723	-2.8745408252158726	nan
0.724	-2.8745559091970447	nan
0.725	-2.8745707506677793	nan
0.726	-2.8745853324551245	nan
0.727	-2.874600329304313	nan
0.728	-2.8746157325636976	nan
0.729	-2.874629897703669	nan
0.73	-2.87464410585579	nan
0.731	-2.874659008979251	nan
0.732	-2.8746739707623217	nan
0.733	-2.8746889910369755	nan
0.734	-2.8747024337145946	nan
0.735	-2.8747156195573456	nan
0.736	-2.874727871688606	nan
0.737	-2.8747395371465423	nan
0.738	-2.8747525725964773	nan
0.739	-2.8747659863367034	nan
0.74	-2.8747788043608176	nan
0.741	-2.874790688726006	nan
0.742	-2.8748016296944052	nan
0.743	-2.8748135938850123	nan
0.744	-2.8748255894358823	nan
0.745	-2.8748389368736453	nan
0.746	-2.874853280645375	nan
0.747	-2.8748676392876065	nan
0.748	-2.874882029524583	nan
0.749	-2.874896797018252	nan
0.75	-2.8749116040335463	nan
0.751	-2.8749258066085743	nan
0.752	-2.8749403865112377	nan
0.753	-2.8749550059689866	nan
0.754	-2.874968687965358	nan
0.755	-2.874982433429864	nan
0.756	-2.874996233404582	nan
0.757	-2.8750100934450478	nan
0.758	-2.8750244001914886	nan
0.759	-2.875039161826817	nan
0.76	-2.8750540234984636	nan
0.761	-2.875068338640362	nan
0.762	-2.8750830980767614	nan
0.763	-2.8750963179680213	nan
0.764	-2.875107033035826	nan
0.765	-2.8751172312662137	nan
0.766	-2.875126590306178	nan
0.767	-2.8751354711192816	nan
0.768	-2.8751442149947097	nan
0.769	-2.875153799291612	nan
0.77	-2.8751625481630767	nan
0.771	-2.8751721274476445	nan
0.772	-2.87518155481052	nan
0.773	-2.875190473912385	nan
0.774	-2.8752008422722835	nan
0.775	-2.8752120134725008	nan
0.776	-2.8752233200588897	nan
0.777	-2.8752351154757543	nan
0.778	-2.8752470697705195	nan
0.779	-2.8752585460809597	nan
0.78	-2.8752705432218186	nan
0.781	-2.875282087516721	nan
0.782	-2.875293179679426	nan
0.783	-2.8753044673207753	nan
0.784	-2.875316259863607	nan
0.785	-2.8753279124463016	nan
0.786	-2.875340753505199	nan
0.787	-2.87535379921081	nan
0.788	-2.8753667195301578	nan
0.789	-2.8753795218467695	nan
0.79	-2.8753931956257537	nan
0.791	-2.875407442061298	nan
0.792	-2.8754215766562954	nan
0.793	-2.875435585828003	nan
0.794	-2.875449809953376	nan
0.795	-2.875463257213546	nan
0.796	-2.8754759019436147	nan
0.797	-2.8754893924720113	nan
0.798	-2.8755037274971214	nan
0.799	-2.8755182223629503	nan
0.8	-2.8755335592922653	nan
0.801	-2.8755484175703674	nan
0.802	-2.8755637906565816	nan
0.803	-2.875578737406513	nan
0.804	-2.8755952085938143	nan
0.805	-2.875611213531022	nan
0.806	-2.875626746070097	nan
0.807	-2.875641782060804	nan
0.808	-2.875655940632671	nan
0.809	-2.875670211548652	nan
0.81	-2.8756852440176335	nan
0.811	-2.875701019617807	nan
0.812	-2.8757164927687784	nan
0.813	-2.8757313262504773	nan
0.814	-2.875745486716866	nan
0.815	-2.8757612467416904	nan
0.816	-2.8757776121935756	nan
0.817	-2.8757945828466593	nan
0.818	-2.875810842502739	nan
0.819	-2.875825764291406	nan
0.82	-2.8758393325346954	nan
0.821	-2.875850846415008	nan
0.822	-2.875862248328287	nan
0.823	-2.875873187360251	nan
0.824	-2.875883355482465	nan
0.825	-2.875893718620038	nan
0.826	-2.875903628653204	nan
0.827	-2.8759117555552223	nan
0.828	-2.875919063502903	nan
0.829	-2.8759275142639997	nan
0.83	-2.8759347702583784	nan
0.831	-2.875941495731646	nan
0.832	-2.8759479853284464	nan
0.833	-2.8759535880265776	nan
0.834	-2.8759589730308512	nan
0.835	-2.8759641295368037	nan
0.836	-2.8759683547792876	nan
0.837	-2.8759723162222777	nan
0.838	-2.8759759909331266	nan
0.839	-2.875979359501433	nan
0.84	-2.875982748497171	nan
0.841	-2.875985801093433	nan
0.842	-2.8759891898830694	nan
0.843	-2.875992916587068	nan
0.844	-2.8759966375305908	nan
0.845	-2.876001003818115	nan
0.846	-2.8760063838395316	nan
0.847	-2.876010496881155	nan
0.848	-2.8760143407707917	nan
0.849	-2.8760182595397357	nan
0.85	-2.876021913822401	nan
0.851	-2.8760262838362896	nan
0.852	-2.8760303816477535	nan
0.853	-2.876035491428372	nan
0.854	-2.8760393151060284	nan
0.855	-2.8760438304320775	nan
0.856	-2.8760487033124913	nan
0.857	-2.8760542865813608	nan
0.858	-2.876058619806044	nan
0.859	-2.8760626851672964	nan
0.86	-2.876066184971985	nan
0.861	-2.876069443454665	nan
0.862	-2.8760718286378535	nan
0.863	-2.8760756793233795	nan
0.864	-2.876080663906336	nan
0.865	-2.8760848283817286	nan
0.866	-2.8760888021331126	nan
0.867	-2.876092566699222	nan
0.868	-2.8760957576384834	nan
0.869	-2.876099686156425	nan
0.87	-2.8761043652565292	nan
0.871	-2.876110493039411	nan
0.872	-2.8761161158282733	nan
0.873	-2.8761222093577485	nan
0.874	-2.8761284181632014	nan
0.875	-2.876133764991284	nan
0.876	-2.8761389408580325	nan
0.877	-2.876145243260136	nan
0.878	-2.8761516965697353	nan
0.879	-2.8761582999985027	nan
0.88	-2.876164719705646	nan
0.881	-2.8761719451429424	nan
0.882	-2.8761789780699485	nan
0.883	-2.876186838761062	nan
0.884	-2.876194851802046	nan
0.885	-2.87620302526048	nan
0.886	-2.8762120506857594	nan
0.887	-2.8762202673165747	nan
0.888	-2.8762293343813674	nan
0.889	-2.8762382770609185	nan
0.89	-2.8762457935343946	nan
0.891	-2.8762528932822664	nan
0.892	-2.8762599218353775	nan
0.893	-2.8762665412851907	nan
0.894	-2.8762727511396737	nan
0.895	-2.8762785508642934	nan
0.896	-2.8762839398820166	nan
0.897	-2.8762898842046867	nan
0.898	-2.8762947388511204	nan
0.899	-2.8762988497107114	nan
0.9	-2.8763022150234474	nan
0.901	-2.8763044939404154	nan
0.902	-2.876306666662216	nan
0.903	-2.8763087152018074	nan
0.904	-2.876311605246331	nan
0.905	-2.876313361044663	nan
0.906	-2.876314682744686	nan
0.907	-2.8763155784567083	nan
0.908	-2.8763166908082787	nan
0.909	-2.87631703510949	nan
0.91	-2.8763175914484833	nan
0.911	-2.8763177056246145	nan
0.912	-2.8763180691175454	nan
0.913	-2.876317364536186	nan
0.914	-2.876317244550585	nan
0.915	-2.876316394493614	nan
0.916	-2.8763155127509776	nan
0.917	-2.876314614273881	nan
0.918	-2.8763140530273232	nan
0.919	-2.8763131560827757	nan
0.92	-2.8763129483273224	nan
0.921	-2.8763127442575853	nan
0.922	-2.876313183379977	nan
0.923	-2.8763136301844963	nan
0.924	-2.876314738439222	nan
0.925	-2.8763161699594866	nan
0.926	-2.87631855769513	nan
0.927	-2.8763206110459936	nan
0.928	-2.8763229900432243	nan
0.929	-2.8763253565727585	nan
0.93	-2.876328098891485	nan
0.931	-2.8763298575031397	nan
0.932	-2.8763323127339815	nan
0.933	-2.8763341055821083	nan
0.934	-2.876335572776819	nan
0.935	-2.8763380422603655	nan
0.936	-2.8763398462699206	nan
0.937	-2.876341966195172	nan
0.938	-2.8763427537901776	nan
0.939	-2.8763438231804868	nan
0.94	-2.8763458045649	nan
0.941	-2.876347743166141	nan
0.942	-2.8763505865034036	nan
0.943	-2.8763527109896256	nan
0.944	-2.876354124471685	nan
0.945	-2.8763555181509037	nan
0.946	-2.8763565538087805	nan
0.947	-2.876357576623695	nan
0.948	-2.8763588844783503	nan
0.949	-2.8763604760375103	nan
0.95	-2.8763620141334623	nan
0.951	-2.8763638380613994	nan
0.952	-2.8763653119623744	nan
0.953	-2.876366460663578	nan
0.954	-2.876367646408639	nan
0.955	-2.876369860613627	nan
0.956	-2.876372747510124	nan
0.957	-2.8763759599704084	nan
0.958	-2.8763798460040118	nan
0.959	-2.876384406131099	nan
0.96	-2.8763890048083107	nan
0.961	-2.8763946741763835	nan
0.962	-2.8764006870425685	nan
0.963	-2.8764073472031875	nan
0.964	-2.8764123660260537	nan
0.965	-2.876417724781421	nan
0.966	-2.8764230696376325	nan
0.967	-2.876428384217153	nan
0.968	-2.876433659108963	nan
0.969	-2.876438890939817	nan
0.97	-2.8764433993766767	nan
0.971	-2.876447185057277	nan
0.972	-2.8764499529441845	nan
0.973	-2.87645234551494	nan
0.974	-2.8764537159265022	nan
0.975	-2.8764544092460778	nan
0.976	-2.8764544285362366	nan
0.977	-2.8764550307884504	nan
0.978	-2.8764555603021646	nan
0.979	-2.876455380019717	nan
0.98	-2.876455125085853	nan
0.981	-2.8764551631877837	nan
0.982	-2.8764548099247857	nan
0.983	-2.8764544017520888	nan
0.984	-2.876454266603421	nan
0.985	-2.876452720301237	nan
0.986	-2.876451420310944	nan
0.987	-2.876450694485956	nan
0.988	-2.87645018732544	nan
0.989	-2.876449603443172	nan
0.99	-2.8764492749844095	nan
0.991	-2.8764491452281895	nan
0.992	-2.8764475731263293	nan
0.993	-2.876446847051728	nan
0.994	-2.876446949067967	nan
0.995	-2.876446884583608	nan
0.996	-2.8764466368816493	nan
0.997	-2.8764458517915035	nan
0.998	-2.876444858544882	nan
0.999	-2.876444288243364	nan
1.0	-2.8764444861652616	nan
1.001	-2.876445460257386	nan
1.002	-2.876446872613672	nan
1.003	-2.8764477290468653	nan
1.004	-2.8764486525250317	nan
1.005	-2.8764496341701613	nan
1.006	-2.8764506736681152	nan
1.007	-2.8764517707472557	nan
1.008	-2.8764529166570743	nan
1.009	-2.876454102689564	nan
1.01	-2.8764546452612056	nan
1.011	-2.8764548482915573	nan
1.012	-2.876454754520279	nan
1.013	-2.8764540720420917	nan