TITLE = "Peak Detection Analysis"
VARIABLES = "Time", "Signal", "Peak_Value"
ZONE T="Peak Detection Data"
0.0	-3.930008564402631	nan
0.001	-3.930007648201743	nan
0.002	-3.9300048995871295	nan
0.003	-3.9300003185229384	nan
0.004	-3.9299939049494186	nan
0.005	-3.9299856587829174	nan
0.006	-3.929975579915882	nan
0.007	-3.9299636682168595	nan
0.008	-3.9299499235304944	nan
0.009	-3.9299343456775317	nan
0.01	-3.9299169344548166	nan
0.011	-3.9298976896352915	nan
0.012	-3.9298766109680003	nan
0.013	-3.9298536981780847	nan
0.014	-3.9298289509667863	nan
0.015	-3.9298023690114463	nan
0.016	-3.9297739519655046	nan
0.017	-3.9297436994585007	nan
0.018	-3.929711611096074	nan
0.019	-3.929677686459962	nan
0.02	-3.9296419251080033	nan
0.021	-3.929604326574134	nan
0.022	-3.9295648903683893	nan
0.023	-3.9295236159769065	nan
0.024	-3.929480502861919	nan
0.025	-3.9294355504617626	nan
0.026	-3.9293898461663765	nan
0.027	-3.929344477353751	nan
0.028	-3.9292994434263697	nan
0.029	-3.929254743786716	nan
0.03	-3.9292103778372724	nan
0.031	-3.929166344980522	nan
0.032	-3.9291226446189484	nan
0.033	-3.9290792761550346	nan
0.034	-3.929036238991264	nan
0.035	-3.928993532530119	nan
0.036	-3.928951156174083	nan
0.037	-3.928909109325639	nan
0.038	-3.9288673913872714	nan
0.039	-3.928826001761462	nan
0.04	-3.9287849398506944	nan
0.041	-3.9287442050574515	nan
0.042	-3.928703796784217	nan
0.043	-3.928663714433473	nan
0.044	-3.928623957407704	nan
0.045	-3.9285845251093923	nan
0.046	-3.9285454169410214	nan
0.047	-3.928506632305074	nan
0.048	-3.928468170604033	nan
0.049	-3.9284300312403833	nan
0.05	-3.9283922136166063	nan
0.051	-3.928354717135186	nan
0.052	-3.928317541198605	nan
0.053	-3.928280685209346	nan
0.054	-3.9282441485698936	nan
0.055	-3.9282079306827296	nan
0.056	-3.928172030950338	nan
0.057	-3.9281364487752013	nan
0.058	-3.928101183559803	nan
0.059	-3.9280662347066264	nan
0.06	-3.9280316016181547	nan
0.061	-3.9279972836968704	nan
0.062	-3.9279632803452573	nan
0.063	-3.927929590965798	nan
0.064	-3.9278962149609757	nan
0.065	-3.9278631517332743	nan
0.066	-3.927830400685176	nan
0.067	-3.9277979612191647	nan
0.068	-3.927765832737723	nan
0.069	-3.9277340146433346	nan
0.07	-3.9277025063384823	nan
0.071	-3.9276713072256486	nan
0.072	-3.9276404167073173	nan
0.073	-3.9276098341859718	nan
0.074	-3.927579559064095	nan
0.075	-3.92754959074417	nan
0.076	-3.92751992862868	nan
0.077	-3.9274905721201083	nan
0.078	-3.9274615206209376	nan
0.079	-3.927432773533651	nan
0.08	-3.927404330260732	nan
0.081	-3.927376190204664	nan
0.082	-3.92734835276793	nan
0.083	-3.9273208173530123	nan
0.084	-3.927293583362395	nan
0.085	-3.927266650198561	nan
0.086	-3.9272400172639936	nan
0.087	-3.9272136839611758	nan
0.088	-3.9271876496925904	nan
0.089	-3.9271619138607208	nan
0.09	-3.92713647586805	nan
0.091	-3.9271113351170617	nan
0.092	-3.9270864910102388	nan
0.093	-3.927061942950064	nan
0.094	-3.9270376903390214	nan
0.095	-3.927013732579593	nan
0.096	-3.9269900690742623	nan
0.097	-3.926966699225513	nan
0.098	-3.926943622435827	nan
0.099	-3.9269208381076885	nan
0.1	-3.926898345643581	nan
0.101	-3.9268761444459863	nan
0.102	-3.9268542339173886	nan
0.103	-3.926832613460271	nan
0.104	-3.926811282477116	nan
0.105	-3.926790240370408	nan
0.106	-3.9267694865426286	nan
0.107	-3.9267490203962616	nan
0.108	-3.92672884133379	nan
0.109	-3.926708948757698	nan
0.11	-3.9266893420704667	nan
0.111	-3.926670020674581	nan
0.112	-3.9266509839725234	nan
0.113	-3.926632231366777	nan
0.114	-3.926613762259825	nan
0.115	-3.926595576054151	nan
0.116	-3.926577672152238	nan
0.117	-3.926560049956568	nan
0.118	-3.926542708869625	nan
0.119	-3.926525648293893	nan
0.12	-3.926508867631854	nan
0.121	-3.926492366285991	nan
0.122	-3.9264761436587876	nan
0.123	-3.9264601991527273	nan
0.124	-3.926444532170293	nan
0.125	-3.926429142113968	nan
0.126	-3.9264140283862345	nan
0.127	-3.926399190389576	nan
0.128	-3.926384627526476	nan
0.129	-3.9263703391994182	nan
0.13	-3.9263563248108846	nan
0.131	-3.9263425837633594	nan
0.132	-3.9263291154593247	nan
0.133	-3.9263159193012642	nan
0.134	-3.926302994691661	nan
0.135	-3.926290341032999	nan
0.136	-3.92627795772776	nan
0.137	-3.9262658441784275	nan
0.138	-3.9262539997874852	nan
0.139	-3.926242423957416	nan
0.14	-3.926231116090703	nan
0.141	-3.9262200755898293	nan
0.142	-3.9262093018572783	nan
0.143	-3.9261987942955328	nan
0.144	-3.926188552307076	nan
0.145	-3.926178575294391	nan
0.146	-3.9261688626599613	nan
0.147	-3.9261594138062694	nan
0.148	-3.926150228135799	nan
0.149	-3.926141305051033	nan
0.15	-3.926132643954455	nan
0.151	-3.926124244248548	nan
0.152	-3.9261161053357942	nan
0.153	-3.9261082266186778	nan
0.154	-3.926100607499681	nan
0.155	-3.926093247381288	nan
0.156	-3.9260861456659812	nan
0.157	-3.9260793017562445	nan
0.158	-3.9260727150545605	nan
0.159	-3.926066384963412	nan
0.16	-3.9260603108852825	nan
0.161	-3.9260544922226557	nan
0.162	-3.9260489283780142	nan
0.163	-3.926043618753841	nan
0.164	-3.9260385627526193	nan
0.165	-3.926033759776833	nan
0.166	-3.926029209228964	nan
0.167	-3.926024910511497	nan
0.168	-3.9260208630269138	nan
0.169	-3.926017066177698	nan
0.17	-3.926013519366332	nan
0.171	-3.9260102219953	nan
0.172	-3.926007173467085	nan
0.173	-3.92600437318417	nan
0.174	-3.926001820549038	nan
0.175	-3.9259995149641718	nan
0.176	-3.92599745583227	nan
0.177	-3.925997176940761	nan
0.178	-3.9259966871714322	-3.9259966871714322
0.179	-3.9259983009585677	nan
0.18	-3.925999297289488	nan
0.181	-3.92600007941232	nan
0.182	-3.9260014124134144	nan
0.183	-3.926003658778815	nan
0.184	-3.9260067856507437	nan
0.185	-3.926010760278755	nan
0.186	-3.926014414696064	nan
0.187	-3.9260189118611013	nan
0.188	-3.926023841204059	nan
0.189	-3.926028782432275	nan
0.19	-3.9260341005099413	nan
0.191	-3.9260382378360092	nan
0.192	-3.926042745225226	nan
0.193	-3.926047247821843	nan
0.194	-3.9260513469878924	nan
0.195	-3.926057355609964	nan
0.196	-3.9260656697538447	nan
0.197	-3.9260739408300656	nan
0.198	-3.926082522927913	nan
0.199	-3.9260925626891354	nan
0.2	-3.926102522828659	nan
0.201	-3.9261144129250924	nan
0.202	-3.92612778207155	nan
0.203	-3.9261410857644203	nan
0.204	-3.926153562709524	nan
0.205	-3.926164417934521	nan
0.206	-3.926174027281151	nan
0.207	-3.926183940480156	nan
0.208	-3.926192610617241	nan
0.209	-3.926201599177588	nan
0.21	-3.926209351470318	nan
0.211	-3.92621584552416	nan
0.212	-3.9262226307943653	nan
0.213	-3.9262289913917217	nan
0.214	-3.926235290055774	nan
0.215	-3.9262415532234347	nan
0.216	-3.9262474098060425	nan
0.217	-3.926251694707496	nan
0.218	-3.9262559453844093	nan
0.219	-3.9262593832229427	nan
0.22	-3.926262809864005	nan
0.221	-3.9262670010799225	nan
0.222	-3.9262727276381626	nan
0.223	-3.926279579776197	nan
0.224	-3.9262863905284267	nan
0.225	-3.9262939263566863	nan
0.226	-3.926302958508941	nan
0.227	-3.9263115433184264	nan
0.228	-3.926321661752687	nan
0.229	-3.9263305485261397	nan
0.23	-3.926341362522363	nan
0.231	-3.9263544817195704	nan
0.232	-3.926367179939266	nan
0.233	-3.9263802400699115	nan
0.234	-3.926392107169006	nan
0.235	-3.9264036889848124	nan
0.236	-3.9264157543967624	nan
0.237	-3.9264267315888755	nan
0.238	-3.9264374462272853	nan
0.239	-3.9264487337129297	nan
0.24	-3.926458287408045	nan
0.241	-3.926469622554001	nan
0.242	-3.9264812254299084	nan
0.243	-3.9264931104993512	nan
0.244	-3.9265053031513686	nan
0.245	-3.9265162576608037	nan
0.246	-3.9265267288421213	nan
0.247	-3.9265386489505776	nan
0.248	-3.9265520288631013	nan
0.249	-3.926564170650292	nan
0.25	-3.9265766395759214	nan
0.251	-3.926587841798344	nan
0.252	-3.926598246484675	nan
0.253	-3.9266085531806714	nan
0.254	-3.926621859879767	nan
0.255	-3.926637734256042	nan
0.256	-3.926656150696905	nan
0.257	-3.926673585389445	nan
0.258	-3.926693586722913	nan
0.259	-3.9267149726386146	nan
0.26	-3.9267373221383157	nan
0.261	-3.9267625833824877	nan
0.262	-3.9267872763284077	nan
0.263	-3.926812543100645	nan
0.264	-3.926838396663341	nan
0.265	-3.926864453893449	nan
0.266	-3.9268906962496977	nan
0.267	-3.9269186799163394	nan
0.268	-3.9269468380834796	nan
0.269	-3.926976317540439	nan
0.27	-3.9270070803919976	nan
0.271	-3.927037934051102	nan
0.272	-3.92706615817287	nan
0.273	-3.927093319290533	nan
0.274	-3.927120940935314	nan
0.275	-3.9271478791615846	nan
0.276	-3.9271722171711816	nan
0.277	-3.92719633369901	nan
0.278	-3.9272202280086854	nan
0.279	-3.927243923891213	nan
0.28	-3.9272662063971557	nan
0.281	-3.9272875055751486	nan
0.282	-3.927310140365573	nan
0.283	-3.927332104430361	nan
0.284	-3.9273538018996335	nan
0.285	-3.927374355757033	nan
0.286	-3.9273942270478948	nan
0.287	-3.927415014094559	nan
0.288	-3.9274351632780373	nan
0.289	-3.92745499880771	nan
0.29	-3.9274749196642755	nan
0.291	-3.9274957651134033	nan
0.292	-3.9275166488107454	nan
0.293	-3.927539555355976	nan
0.294	-3.9275640749822673	nan
0.295	-3.9275886504790987	nan
0.296	-3.927611007518778	nan
0.297	-3.927632325542228	nan
0.298	-3.9276506773572537	nan
0.299	-3.927667565496425	nan
0.3	-3.9276856709330925	nan
0.301	-3.927703788903391	nan
0.302	-3.9277203311559816	nan
0.303	-3.927735807283127	nan
0.304	-3.9277482270100403	nan
0.305	-3.9277599645450167	nan
0.306	-3.92777069278609	nan
0.307	-3.9277823069122304	nan
0.308	-3.927791243703755	nan
0.309	-3.9277967392705118	nan
0.31	-3.9278007174589114	nan
0.311	-3.927801691640848	nan
0.312	-3.9278031532057245	nan
0.313	-3.927803132321402	nan
0.314	-3.9278032016632887	nan
0.315	-3.927801776662898	nan
0.316	-3.9277988404619117	nan
0.317	-3.9277967234408346	nan
0.318	-3.927794687427757	nan
0.319	-3.9277919942621535	nan
0.32	-3.9277886832065674	nan
0.321	-3.927784791323377	nan
0.322	-3.9277822761959196	nan
0.323	-3.9277784273037777	nan
0.324	-3.927773653286658	nan
0.325	-3.9277710529995624	nan
0.326	-3.927768209656849	nan
0.327	-3.9277647667169355	nan
0.328	-3.9277611496270968	nan
0.329	-3.9277581525709473	nan
0.33	-3.9277557737425917	nan
0.331	-3.9277512475110363	nan
0.332	-3.9277453512745275	nan
0.333	-3.9277377579583215	nan
0.334	-3.92773082292422	nan
0.335	-3.9277261076101784	nan
0.336	-3.9277208214013792	nan
0.337	-3.9277152444189043	nan
0.338	-3.927708596085742	nan
0.339	-3.92770210746747	nan
0.34	-3.927697228817828	nan
0.341	-3.9276895890441725	nan
0.342	-3.9276799812492236	nan
0.343	-3.9276668329143845	nan
0.344	-3.9276505263823354	nan
0.345	-3.927633817451557	nan
0.346	-3.9276193977840257	nan
0.347	-3.9276029478815313	nan
0.348	-3.927587198705575	nan
0.349	-3.927571067480213	nan
0.35	-3.9275526247641763	nan
0.351	-3.9275337420127827	nan
0.352	-3.9275148005147233	nan
0.353	-3.927497757936818	nan
0.354	-3.9274803335549517	nan
0.355	-3.9274629381443735	nan
0.356	-3.927445961169586	nan
0.357	-3.92742792508994	nan
0.358	-3.927411939484713	nan
0.359	-3.927399100336661	nan
0.36	-3.9273879555054587	nan
0.361	-3.92737846833264	nan
0.362	-3.927368298118816	nan
0.363	-3.9273578218173473	nan
0.364	-3.9273466367098933	nan
0.365	-3.927338629256454	nan
0.366	-3.927332649407475	nan
0.367	-3.9273252054343395	nan
0.368	-3.9273179275539487	nan
0.369	-3.9273126801617075	nan
0.37	-3.9273082530971073	nan
0.371	-3.927303785323551	nan
0.372	-3.927297743771285	nan
0.373	-3.927293171828054	nan
0.374	-3.927288928163677	nan
0.375	-3.92728263155891	nan
0.376	-3.9272778418480914	nan
0.377	-3.9272729557503334	nan
0.378	-3.92726559476065	nan
0.379	-3.927256958505593	nan
0.38	-3.9272482474860824	nan
0.381	-3.9272425729916445	nan
0.382	-3.9272360686911645	nan
0.383	-3.9272310820916654	nan
0.384	-3.927226811851469	nan
0.385	-3.927220912233941	nan
0.386	-3.9272149735717723	nan
0.387	-3.9272086855899158	nan
0.388	-3.9272035938010648	nan
0.389	-3.927198139451465	nan
0.39	-3.927192778117052	nan
0.391	-3.9271890109404053	nan
0.392	-3.9271868694836796	nan
0.393	-3.9271878587826787	nan
0.394	-3.927190434492012	nan
0.395	-3.927193430395884	nan
0.396	-3.92719489505278	nan
0.397	-3.9271987869230083	nan
0.398	-3.927201984653615	nan
0.399	-3.9272067672484248	nan
0.4	-3.9272127571085234	nan
0.401	-3.9272173144242037	nan
0.402	-3.92722278699984	nan
0.403	-3.9272279253243183	nan
0.404	-3.927235732974988	nan
0.405	-3.92724349630255	nan
0.406	-3.9272507394862486	nan
0.407	-3.927258952836153	nan
0.408	-3.9272662675821373	nan
0.409	-3.927271986318808	nan
0.41	-3.9272791717840585	nan
0.411	-3.9272878018439434	nan
0.412	-3.9272954861446197	nan
0.413	-3.927303042657047	nan
0.414	-3.9273108014372293	nan
0.415	-3.927316825736026	nan
0.416	-3.927320697899544	nan
0.417	-3.927323966078242	nan
0.418	-3.927327294932109	nan
0.419	-3.9273307195586553	nan
0.42	-3.9273327739587645	nan
0.421	-3.9273346425108207	nan
0.422	-3.92733740123455	nan
0.423	-3.927338359703571	nan
0.424	-3.927339052951009	nan
0.425	-3.9273395521282572	nan
0.426	-3.927339873514391	nan
0.427	-3.9273400114773263	nan
0.428	-3.927341545628476	nan
0.429	-3.9273444552371295	nan
0.43	-3.927345974176509	nan
0.431	-3.9273456524466908	nan
0.432	-3.9273462967803408	nan
0.433	-3.9273463731710434	nan
0.434	-3.9273478523767738	nan
0.435	-3.9273515031715647	nan
0.436	-3.9273548974272527	nan
0.437	-3.9273569130690387	nan
0.438	-3.927358244393257	nan
0.439	-3.927361223630056	nan
0.44	-3.927363939251784	nan
0.441	-3.927368032169743	nan
0.442	-3.927373121806044	nan
0.443	-3.9273768373484628	nan
0.444	-3.9273823451677616	nan
0.445	-3.9273873213179114	nan
0.446	-3.9273901335392627	nan
0.447	-3.927390769887757	nan
0.448	-3.9273911359181084	nan
0.449	-3.9273932901668376	nan
0.45	-3.927395241022928	nan
0.451	-3.9274001646144607	nan
0.452	-3.9274068998497063	nan
0.453	-3.9274114720383384	nan
0.454	-3.9274133069713177	nan
0.455	-3.9274150487637	nan
0.456	-3.9274156313497817	nan
0.457	-3.9274181887978967	nan
0.458	-3.9274218730845263	nan
0.459	-3.9274262962561624	nan
0.46	-3.927431444342177	nan
0.461	-3.9274369239929854	nan
0.462	-3.9274451057350417	nan
0.463	-3.9274555258548878	nan
0.464	-3.9274655014410667	nan
0.465	-3.927476969090311	nan
0.466	-3.927488776840916	nan
0.467	-3.927503610852211	nan
0.468	-3.9275183892506194	nan
0.469	-3.9275308122465264	nan
0.47	-3.927543165494065	nan
0.471	-3.927555071421028	nan
0.472	-3.927568967324888	nan
0.473	-3.9275845073652165	nan
0.474	-3.9276017047162295	nan
0.475	-3.927618599527802	nan
0.476	-3.927635604505616	nan
0.477	-3.927652226513444	nan
0.478	-3.927670763926494	nan
0.479	-3.927688464084879	nan
0.48	-3.9277076399357895	nan
0.481	-3.927725574573695	nan
0.482	-3.9277426475322317	nan
0.483	-3.927759994667001	nan
0.484	-3.927776010319385	nan
0.485	-3.927791095472605	nan
0.486	-3.927808053034903	nan
0.487	-3.927826075573236	nan
0.488	-3.927846390280068	nan
0.489	-3.9278657930592447	nan
0.49	-3.927884301491421	nan
0.491	-3.9279022504835672	nan
0.492	-3.927918886556157	nan
0.493	-3.927935798581102	nan
0.494	-3.9279525349856494	nan
0.495	-3.9279667193613377	nan
0.496	-3.9279807415105683	nan
0.497	-3.9279941878478764	nan
0.498	-3.928009038955104	nan
0.499	-3.9280205322410016	nan
0.5	-3.92803101977784	nan
0.501	-3.9280400705499385	nan
0.502	-3.928048846423457	nan
0.503	-3.928059392715645	nan
0.504	-3.928070434279908	nan
0.505	-3.928080885604491	nan
0.506	-3.9280922785956722	nan
0.507	-3.9281026836845143	nan
0.508	-3.9281132384515383	nan
0.509	-3.92812236283878	nan
0.51	-3.928130782296316	nan
0.511	-3.9281369979049483	nan
0.512	-3.9281418247032707	nan
0.513	-3.9281472355084603	nan
0.514	-3.9281528402688948	nan
0.515	-3.928156641802787	nan
0.516	-3.928160916265926	nan
0.517	-3.9281626382781876	nan
0.518	-3.928164493876867	nan
0.519	-3.9281676255725	nan
0.52	-3.9281700234316537	nan
0.521	-3.9281725554591858	nan
0.522	-3.9281744683178115	nan
0.523	-3.9281777027665123	nan
0.524	-3.928177977056754	nan
0.525	-3.928177222054197	nan
0.526	-3.928176959341574	nan
0.527	-3.928174949228439	nan
0.528	-3.9281708352583866	nan
0.529	-3.928165451212974	nan
0.53	-3.9281596483415457	nan
0.531	-3.9281534994623337	nan
0.532	-3.9281477189227014	nan
0.533	-3.928143552859244	nan
0.534	-3.9281397636239683	nan
0.535	-3.9281348687391504	nan
0.536	-3.928129258980411	nan
0.537	-3.928124453337858	nan
0.538	-3.928117012330324	nan
0.539	-3.9281085463322034	nan
0.54	-3.928100978877022	nan
0.541	-3.9280920244423156	nan
0.542	-3.92808324416981	nan
0.543	-3.9280734805019075	nan
0.544	-3.928061978386507	nan
0.545	-3.9280526533350617	nan
0.546	-3.9280451456854735	nan
0.547	-3.928039891052769	nan
0.548	-3.9280353166523616	nan
0.549	-3.9280322709779982	nan
0.55	-3.928030413640735	nan
0.551	-3.9280277614986	nan
0.552	-3.928023831686574	nan
0.553	-3.9280213541472477	nan
0.554	-3.928021431431352	nan
0.555	-3.9280228650263727	nan
0.556	-3.9280252634467585	nan
0.557	-3.9280275029585585	nan
0.558	-3.92802844592104	nan
0.559	-3.928030814756205	nan
0.56	-3.928032395147028	nan
0.561	-3.9280350412538168	nan
0.562	-3.9280387569066226	nan
0.563	-3.928039295656222	nan
0.564	-3.9280406385163484	nan
0.565	-3.9280439942570577	nan
0.566	-3.9280486476332923	nan
0.567	-3.9280536919456406	nan
0.568	-3.9280587964092915	nan
0.569	-3.9280612380601605	nan
0.57	-3.928065728793049	nan
0.571	-3.928070269027417	nan
0.572	-3.9280751626809507	nan
0.573	-3.928078835905114	nan
0.574	-3.928084059671988	nan
0.575	-3.9280904354288806	nan
0.576	-3.9280959989072994	nan
0.577	-3.9281031177422734	nan
0.578	-3.928109137485364	nan
0.579	-3.928116347025577	nan
0.58	-3.928122340760976	nan
0.581	-3.9281298251106973	nan
0.582	-3.9281376131743992	nan
0.583	-3.9281426078601225	nan
0.584	-3.928144920647044	nan
0.585	-3.928146033090134	nan
0.586	-3.9281478355990886	nan
0.587	-3.928150711322669	nan
0.588	-3.9281542232896327	nan
0.589	-3.928158312043311	nan
0.59	-3.9281614556361326	nan
0.591	-3.9281655641062754	nan
0.592	-3.928171378689795	nan
0.593	-3.9281777130007116	nan
0.594	-3.928184107977215	nan
0.595	-3.928191379449381	nan
0.596	-3.9281990733384187	nan
0.597	-3.9282063394350444	nan
0.598	-3.928213118653306	nan
0.599	-3.928219741689764	nan
0.6	-3.928224990841147	nan
0.601	-3.9282319793111515	nan
0.602	-3.928237254727019	nan
0.603	-3.9282392934076116	nan
0.604	-3.928239338774128	nan
0.605	-3.928239357063412	nan
0.606	-3.9282396682257503	nan
0.607	-3.928239855884688	nan
0.608	-3.928239591290698	nan
0.609	-3.9282404475513903	nan
0.61	-3.9282419561968767	nan
0.611	-3.9282422170649625	nan
0.612	-3.928241173668606	nan
0.613	-3.928241927299346	nan
0.614	-3.928242158320669	nan
0.615	-3.928242266679578	nan
0.616	-3.9282438028532005	nan
0.617	-3.9282456874588276	nan
0.618	-3.928247134132974	nan
0.619	-3.928250498198799	nan
0.62	-3.9282530673295377	nan
0.621	-3.928255646033749	nan
0.622	-3.9282559411229703	nan
0.623	-3.9282547319708754	nan
0.624	-3.928252342457009	nan
0.625	-3.9282499478409183	nan
0.626	-3.92824789575425	nan
0.627	-3.928244971493923	nan
0.628	-3.928241921015742	nan
0.629	-3.9282391380978123	nan
0.63	-3.928238164927761	nan
0.631	-3.9282358168083844	nan
0.632	-3.9282333065683552	nan
0.633	-3.9282309270433613	nan
0.634	-3.9282302095554207	nan
0.635	-3.928232696957514	nan
0.636	-3.92823603219308	nan
0.637	-3.92823602305619	nan
0.638	-3.9282380982516156	nan
0.639	-3.92823957471177	nan
0.64	-3.9282428041288067	nan
0.641	-3.928246640827662	nan
0.642	-3.928248348907868	nan
0.643	-3.9282499192510096	nan
0.644	-3.9282530189463447	nan
0.645	-3.928256402262386	nan
0.646	-3.9282608710813065	nan
0.647	-3.92826526887089	nan
0.648	-3.9282700113108873	nan
0.649	-3.928273098041389	nan
0.65	-3.928279185058252	nan
0.651	-3.9282840109898602	nan
0.652	-3.9282899770939603	nan
0.653	-3.928297835044168	nan
0.654	-3.9283060325642323	nan
0.655	-3.928311455710715	nan
0.656	-3.9283137481520907	nan
0.657	-3.9283136738944937	nan
0.658	-3.9283142647129323	nan
0.659	-3.92831162041822	nan
0.66	-3.9283061374675823	nan
0.661	-3.928300140284007	nan
0.662	-3.9282928666017063	nan
0.663	-3.928288172265647	nan
0.664	-3.928284793708778	nan
0.665	-3.928279625457131	nan
0.666	-3.9282711334024776	nan
0.667	-3.9282643507117037	nan
0.668	-3.9282576832055156	nan
0.669	-3.9282510814403078	nan
0.67	-3.9282425656316557	nan
0.671	-3.928232495157472	nan
0.672	-3.9282231410825914	nan
0.673	-3.9282164323092275	nan
0.674	-3.928208839717216	nan
0.675	-3.928200797171804	nan
0.676	-3.928192698680644	nan
0.677	-3.928186954748682	nan
0.678	-3.9281835119008197	nan
0.679	-3.928179204398417	nan
0.68	-3.928172540321841	nan
0.681	-3.9281670900090995	nan
0.682	-3.9281593253130347	nan
0.683	-3.9281508093654276	nan
0.684	-3.928141917315395	nan
0.685	-3.9281303091668662	nan
0.686	-3.928118766515096	nan
0.687	-3.928108799852118	nan
0.688	-3.9280973308224576	nan
0.689	-3.9280859736231575	nan
0.69	-3.9280735276089107	nan
0.691	-3.9280596329994175	nan
0.692	-3.9280458940156966	nan
0.693	-3.9280319536627517	nan
0.694	-3.9280153758869307	nan
0.695	-3.927996944596731	nan
0.696	-3.9279758847865445	nan
0.697	-3.927955335632877	nan
0.698	-3.9279330277516777	nan
0.699	-3.927914437890595	nan
0.7	-3.9278937681694464	nan
0.701	-3.927871807782083	nan
0.702	-3.9278501132385	nan
0.703	-3.9278297478476976	nan
0.704	-3.9278091580381345	nan
0.705	-3.9277903190065717	nan
0.706	-3.9277736345900025	nan
0.707	-3.927758311039704	nan
0.708	-3.92774168349753	nan
0.709	-3.9277268785576798	nan
0.71	-3.927715039803804	nan
0.711	-3.9277054557856257	nan
0.712	-3.9276968941723127	nan
0.713	-3.927687489058777	nan
0.714	-3.927677637892633	nan
0.715	-3.9276669507452255	nan
0.716	-3.927658931424414	nan
0.717	-3.927650087865483	nan
0.718	-3.927641198661064	nan
0.719	-3.9276315431594657	nan
0.72	-3.9276227316343557	nan
0.721	-3.9276163357057947	nan
0.722	-3.927609675670668	nan
0.723	-3.9276012360491928	nan
0.724	-3.927595307668945	nan
0.725	-3.9275915085701403	nan
0.726	-3.9275852100922926	nan
0.727	-3.9275779692007102	nan
0.728	-3.9275705488946175	nan
0.729	-3.927563420070564	nan
0.73	-3.927556947079088	nan
0.731	-3.9275503349650545	nan
0.732	-3.927546326301945	nan
0.733	-3.927543000801444	nan
0.734	-3.9275419304234465	nan
0.735	-3.927541594854855	nan
0.736	-3.927538900177015	nan
0.737	-3.9275365536263775	nan
0.738	-3.927533424136343	nan
0.739	-3.92753138144751	nan
0.74	-3.927528069031384	nan
0.741	-3.9275249909028775	nan
0.742	-3.9275236608681094	nan
0.743	-3.927522527204001	nan
0.744	-3.9275239310465633	nan
0.745	-3.9275263597384353	nan
0.746	-3.927532188386713	nan
0.747	-3.9275359763960167	nan
0.748	-3.9275412909945597	nan
0.749	-3.9275462021384415	nan
0.75	-3.927552979447607	nan
0.751	-3.9275623833631643	nan
0.752	-3.9275720919818546	nan
0.753	-3.9275817735974012	nan
0.754	-3.9275929109496923	nan
0.755	-3.9276039318315576	nan
0.756	-3.927616025584527	nan
0.757	-3.9276296062950116	nan
0.758	-3.927644247013475	nan
0.759	-3.927659540563995	nan
0.76	-3.927672075539953	nan
0.761	-3.927684448815149	nan
0.762	-3.927698675137119	nan
0.763	-3.927713122088932	nan
0.764	-3.9277266440624565	nan
0.765	-3.9277412038461446	nan
0.766	-3.9277536866794587	nan
0.767	-3.9277648605032316	nan
0.768	-3.9277767233933183	nan
0.769	-3.9277892794907414	nan
0.77	-3.927800553106644	nan
0.771	-3.927810140448279	nan
0.772	-3.927818804686006	nan
0.773	-3.9278284881035983	nan
0.774	-3.9278369557137642	nan
0.775	-3.927842939923605	nan
0.776	-3.927851964431253	nan
0.777	-3.9278597027007858	nan
0.778	-3.927867657111298	nan
0.779	-3.927875820622969	nan
0.78	-3.9278869415765314	nan
0.781	-3.9278982798778093	nan
0.782	-3.9279079391925236	nan
0.783	-3.9279193902571397	nan
0.784	-3.92792873596482	nan
0.785	-3.9279395837044664	nan
0.786	-3.927951903765067	nan
0.787	-3.927965628524985	nan
0.788	-3.927980326239256	nan
0.789	-3.927996070404037	nan
0.79	-3.9280132158305863	nan
0.791	-3.9280298388969084	nan
0.792	-3.928044411524345	nan
0.793	-3.9280587469033277	nan
0.794	-3.928071328993358	nan
0.795	-3.928084128865387	nan
0.796	-3.9280943700485227	nan
0.797	-3.9281079443294975	nan
0.798	-3.9281212779251358	nan
0.799	-3.9281343109106	nan
0.8	-3.92814599802447	nan
0.801	-3.9281567462349125	nan
0.802	-3.9281677080751267	nan
0.803	-3.9281789366413626	nan
0.804	-3.928188523485618	nan
0.805	-3.928198026206053	nan
0.806	-3.928205782621566	nan
0.807	-3.928212150509891	nan
0.808	-3.9282202665313286	nan
0.809	-3.92822891197346	nan
0.81	-3.928239976696657	nan
0.811	-3.9282500235473377	nan
0.812	-3.928257424518486	nan
0.813	-3.928264229385059	nan
0.814	-3.9282723374272144	nan
0.815	-3.928280167135698	nan
0.816	-3.9282884591240093	nan
0.817	-3.928298335104937	nan
0.818	-3.92830865248185	nan
0.819	-3.928318595530226	nan
0.82	-3.928329626359812	nan
0.821	-3.928342965536869	nan
0.822	-3.928357057806183	nan
0.823	-3.9283698622938976	nan
0.824	-3.928384790944891	nan
0.825	-3.9284015105262875	nan
0.826	-3.9284184571176297	nan
0.827	-3.928435584395485	nan
0.828	-3.9284518407397426	nan
0.829	-3.928469228635347	nan
0.83	-3.92848415685637	nan
0.831	-3.9285001315011585	nan
0.832	-3.92851912580243	nan
0.833	-3.928537230948677	nan
0.834	-3.928556773154103	nan
0.835	-3.9285745550615707	nan
0.836	-3.9285913182741727	nan
0.837	-3.9286082729994427	nan
0.838	-3.928625413099993	nan
0.839	-3.928640064367072	nan
0.84	-3.9286533409566027	nan
0.841	-3.9286668615320504	nan
0.842	-3.928679872847225	nan
0.843	-3.928693129013437	nan
0.844	-3.928707107540133	nan
0.845	-3.928719381382929	nan
0.846	-3.9287311440061137	nan
0.847	-3.928743499843408	nan
0.848	-3.928758001519021	nan
0.849	-3.9287732011516447	nan
0.85	-3.928786260908802	nan
0.851	-3.9287995188762754	nan
0.852	-3.9288110259290296	nan
0.853	-3.9288199758045455	nan
0.854	-3.9288314872057892	nan
0.855	-3.9288454349942596	nan
0.856	-3.9288600009486228	nan
0.857	-3.9288763209159208	nan
0.858	-3.9288893426417855	nan
0.859	-3.928901794431507	nan
0.86	-3.9289125212058593	nan
0.861	-3.928920763012995	nan
0.862	-3.9289301324468715	nan
0.863	-3.9289381623471784	nan
0.864	-3.928944060963046	nan
0.865	-3.9289493244932463	nan
0.866	-3.928954818226633	nan
0.867	-3.928957865341336	nan
0.868	-3.928957262370765	nan
0.869	-3.928957288811041	nan
0.87	-3.928959151310389	nan
0.871	-3.928959322932751	nan
0.872	-3.9289610338134366	nan
0.873	-3.928961980814143	nan
0.874	-3.9289613564061314	nan
0.875	-3.9289603287494295	nan
0.876	-3.9289584404218543	nan
0.877	-3.928956176346419	nan
0.878	-3.9289531056491653	nan
0.879	-3.9289476028723844	nan
0.88	-3.9289424306585583	nan
0.881	-3.9289364118820855	nan
0.882	-3.9289306491376124	nan
0.883	-3.928925899993377	nan
0.884	-3.9289186391162274	nan
0.885	-3.928910812753728	nan
0.886	-3.928902843567444	nan
0.887	-3.9288935805456395	nan
0.888	-3.9288849605530305	nan
0.889	-3.9288761232699363	nan
0.89	-3.9288683454864644	nan
0.891	-3.9288599405488775	nan
0.892	-3.928850863429214	nan
0.893	-3.928841975702874	nan
0.894	-3.928832023508897	nan
0.895	-3.9288218060850335	nan
0.896	-3.9288143771167694	nan
0.897	-3.928805138531116	nan
0.898	-3.9287941079108064	nan
0.899	-3.9287812382292957	nan
0.9	-3.928770092232956	nan
0.901	-3.928758728030131	nan
0.902	-3.9287479204120843	nan
0.903	-3.9287380576236783	nan
0.904	-3.928725571838588	nan
0.905	-3.9287113681023014	nan
0.906	-3.9286984645990395	nan
0.907	-3.9286846372134083	nan
0.908	-3.928671401251727	nan
0.909	-3.928657192698978	nan
0.91	-3.9286439314009245	nan
0.911	-3.928631259509	nan
0.912	-3.928617533932942	nan
0.913	-3.9286043972160845	nan
0.914	-3.92859032947205	nan
0.915	-3.9285757623795883	nan
0.916	-3.928559834789033	nan
0.917	-3.9285457319034998	nan
0.918	-3.9285333868237875	nan
0.919	-3.9285196304972665	nan
0.92	-3.928503376729862	nan
0.921	-3.9284885334558175	nan
0.922	-3.928473464814908	nan
0.923	-3.928458955636346	nan
0.924	-3.928442657391221	nan
0.925	-3.9284269545253516	nan
0.926	-3.9284118032264526	nan
0.927	-3.928397958872383	nan
0.928	-3.9283866029625414	nan
0.929	-3.928376917827363	nan
0.93	-3.928368941050114	nan
0.931	-3.9283619412447295	nan
0.932	-3.928352458488821	nan
0.933	-3.928343637061149	nan
0.934	-3.928335570754179	nan
0.935	-3.9283262656406066	nan
0.936	-3.928318799740602	nan
0.937	-3.928312017466743	nan
0.938	-3.9283047922461867	nan
0.939	-3.9282990332730963	nan
0.94	-3.9282939354585356	nan
0.941	-3.9282899583266753	nan
0.942	-3.928288679372864	nan
0.943	-3.9282877531949403	nan
0.944	-3.928287191045683	nan
0.945	-3.92828941265119	nan
0.946	-3.9282905919963516	nan
0.947	-3.928292615450609	nan
0.948	-3.9282947052303934	nan
0.949	-3.9282961393510156	nan
0.95	-3.9282991558233857	nan
0.951	-3.928303389085106	nan
0.952	-3.9283072239634604	nan
0.953	-3.9283107426104173	nan
0.954	-3.9283131162944964	nan
0.955	-3.9283135839855263	nan
0.956	-3.928311032222208	nan
0.957	-3.928307003659341	nan
0.958	-3.928305390666998	nan
0.959	-3.928304656663039	nan
0.96	-3.9283032075381006	nan
0.961	-3.9283025647425553	nan
0.962	-3.928302846676537	nan
0.963	-3.9283024572211156	nan
0.964	-3.9283064809868455	nan
0.965	-3.928312140607411	nan
0.966	-3.92831827388314	nan
0.967	-3.9283224848779885	nan
0.968	-3.9283275792485624	nan
0.969	-3.9283316207887986	nan
0.97	-3.928339250225162	nan
0.971	-3.9283457459695534	nan
0.972	-3.928351828540173	nan
0.973	-3.928358629329356	nan
0.974	-3.92836739717814	nan
0.975	-3.928374972466871	nan
0.976	-3.9283833256094693	nan
0.977	-3.9283928691187953	nan
0.978	-3.928401347713466	nan
0.979	-3.928409574710977	nan
0.98	-3.928414826919085	nan
0.981	-3.928420574582165	nan
0.982	-3.92842792416939	nan
0.983	-3.928434640756225	nan
0.984	-3.928442610184837	nan
0.985	-3.9284538153040933	nan
0.986	-3.9284651822813235	nan
0.987	-3.9284751399789006	nan
0.988	-3.9284836286946008	nan
0.989	-3.9284914785260803	nan
0.99	-3.9284979310351242	nan
0.991	-3.928505696638201	nan
0.992	-3.928512410820297	nan
0.993	-3.928518817906022	nan
0.994	-3.928526026350471	nan
0.995	-3.9285324657291993	nan
0.996	-3.928537688306381	nan
0.997	-3.928541646526773	nan
0.998	-3.928544354752498	nan
0.999	-3.928548051337379	nan
1.0	-3.92855039082303	nan
1.001	-3.9285508767524018	nan
1.002	-3.928552717986024	nan
1.003	-3.9285547156268588	nan
1.004	-3.9285600152920512	nan
1.005	-3.928568575500078	nan
1.006	-3.928577292157974	nan
1.007	-3.928586564428792	nan
1.008	-3.928593277703834	nan
1.009	-3.9286005262622523	nan
1.01	-3.9286060338652344	nan
1.011	-3.928611659935549	nan
1.012	-3.9286189269422205	nan
1.013	-3.9286262862574635	nan
1.014	-3.9286306906631734	nan
1.015	-3.9286360521719788	nan
1.016	-3.9286419247608357	nan
1.017	-3.928646347054999	nan