TITLE = "Rolling Shannon Entropy Analysis"
VARIABLES = "Time", "Shannon_Entropy"
ZONE T="Shannon Entropy Data"
2.5	5.362645123849873
3.5	5.250797671012282
4.5	5.0952248038682475
5.5	5.323885757765477
6.5	5.380890456929951
7.5	5.190325081844113
8.5	5.368754132740072
9.5	5.2396396444042805
10.5	5.138886918009212
11.5	5.296777216459169
12.5	5.094037129344618
13.5	5.177379087052031
14.5	5.053958942484548
15.5	5.293624949120065
16.5	5.318601206328416
17.5	5.158977983501527
18.5	5.270750657474341
19.5	4.982464240952032
20.5	5.063875844519323
21.5	5.052590264071322
22.5	5.116894734595367
23.5	5.1008638988838655
24.5	5.168516097760379
25.5	5.329195745426988
26.5	5.3844211311016155
27.5	5.344107828246711
28.5	5.350668259374253
29.5	5.366523377391636
30.5	5.251387453117238
31.5	5.309221032479869
32.5	5.340313452297056
33.5	5.102953312517008
34.5	5.172495582291566
35.5	5.051031811794411
36.5	4.970883446712495
37.5	4.959768279044233
38.5	5.243824417632635
39.5	5.3133734871475395
40.5	5.099787132044153
41.5	5.11407722415559
42.5	5.230144265927071
43.5	5.29910596295234
44.5	5.35096026826633
45.5	5.312756938719551
46.5	5.358888892256705
47.5	5.1285257472161705
48.5	5.105856879724498
49.5	5.153276765164942
50.5	5.145721123472845
51.5	5.414107217305725
52.5	5.3297991029621326
53.5	5.169909427875503
54.5	5.278474791953891
55.5	5.324767638374254
56.5	5.356217580407849
57.5	5.2218562335552345
