TITLE = "Clinical Assessment Metrics"
VARIABLES = "Metric_Index", "Metric_Value", "Normal_Min", "Normal_Max", "Risk_Level"
ZONE T="Clinical Metrics Data"
1	38.000633343889064	12	20	2
2	3.50242892892928	0.5	5.0	0
3	224.99208320138672	0.4	0.6	1
4	5.473706785877129	3.0	6.0	0
5	0	5.0	20.0	1
