TITLE = "Breathing Cycles Analysis"
VARIABLES = "Cycle_Number", "Peak_Time", "Peak_Amplitude", "Cycle_Duration", "Tidal_Volume"
ZONE T="Breathing Cycles Data"
1	2.391	1.8832036729569726	1.971	0.012784802224972802
2	4.362	1.8738123162746745	1.045	0.0043170360016238085
3	5.407	1.873174109420873	1.032	0.003678829147822249
4	6.439	1.8748175285423088	0.6040000000000001	0.00532224826925809
5	7.043	1.8744612973174741	0.8639999999999999	0.004966017044423454
6	7.907	1.8736122547995648	1.4250000000000007	0.002508001142827565
7	9.332	1.8775423126271227	0.8599999999999994	0.006438058970385407
8	10.192	1.877531977381429	1.1639999999999997	0.006427723724691692
9	11.356	1.8760889057566135	1.2059999999999995	0.009925738474179768
10	12.562	1.8763824247436884	1.5090000000000003	0.010219257461254738
11	14.071	1.8755693077522517	0.918000000000001	0.0060757291321063
12	14.989	1.8738321465912688	1.033999999999999	0.004338567971123419
13	16.023	1.8750261608263696	0.9260000000000019	0.0055325822062242125
14	16.949	1.8796892939338725	0.629999999999999	0.0063939425928070115
15	17.579	1.8785079171771182	1.1370000000000005	0.005212565836052674
16	18.716	1.881008605255557	1.2339999999999982	0.010119621706513815
17	19.95	1.8755238840619748	1.4720000000000013	0.0046349005129315834
18	21.422	1.884301532848432	1.5999999999999979	0.015920623593410843
19	23.022	1.880016183456514	1.0650000000000013	0.011635274201492685
20	24.087	1.8789363150408573	0.5459999999999994	0.01649843944099194
21	24.633	1.879783504946969	0.6280000000000001	0.017345629347103708
22	25.261	1.878315400278642	1.6290000000000013	0.015877524678776567
23	26.89	1.8848502607465896	0.9329999999999998	0.02600510223249941
24	27.823	1.8823241481517488	0.46999999999999886	0.023478989637658598
25	28.293	1.8822003901229964	0.7480000000000011	0.02335523160890629
26	29.041	1.8825119210058414	0.5509999999999984	0.023448170570747218
27	29.592	1.8821979151383204	1.3740000000000023	0.023134164703226157
28	30.966	1.8833235432534547	1.179000000000002	0.024259792818360548
29	32.145	1.8793711169036735	1.4099999999999966	0.024038034986931356
30	33.555	1.885727276276358	0.6199999999999974	0.030394194359615767
31	34.175	1.8871385499605744	1.0080000000000027	0.028465231788694867
32	35.183	1.883952931542323	0.509999999999998	0.025279613370443377
33	35.693	1.8853996567001305	0.8760000000000048	0.026726338528251015
34	36.569	1.8813491108812377	1.2119999999999962	0.022675792709358156
35	37.781	1.8857479949514535	1.9870000000000019	0.014097270240638338
36	39.768	1.88693946154495	2.1539999999999964	0.016684155315231042
37	41.922	1.8872067450227705	0.9730000000000061	0.02002275301225076
38	42.895	1.886031679049426	0.5069999999999979	0.01884768703890627
39	43.402	1.8856479406639257	0.4609999999999985	0.018463948653405948
40	43.863	1.885806783141116	2.183	0.018622791130596283
41	46.046	1.8845969002390544	0.5900000000000034	0.025668593710856724
42	46.636	1.883773824742347	0.6370000000000005	0.02045446125566497
43	47.273	1.8824136993074194	1.029999999999994	0.019094335820737385
44	48.303	1.883884247162839	0.46300000000000097	0.020564883676156942
45	48.766	1.8840150952376085	0.7070000000000007	0.020695731750926427
46	49.473	1.8810117540541713	1.4600000000000009	0.005454390364824313
47	50.933	1.8868787898742436	1.1629999999999967	0.011321426184896621
48	52.096	1.8815511311146194	1.2870000000000061	0.005993767425272356
49	53.383	1.8798725916438468	1.3429999999999964	0.016280889134863585
50	54.726	1.880975821864506	0.9260000000000019	0.017384119355522865
51	55.652	1.8779621552178136	0.5899999999999963	0.018440998444529733
52	56.242	1.8776998420037307	0.9660000000000011	0.018178685230446856
53	57.208	1.8786252972234194	0.7920000000000016	0.01910414045013553
54	58.0	1.88262843141228	1.0499999999999972	0
