TITLE = "Rolling Shannon Entropy Analysis"
VARIABLES = "Time", "Shannon_Entropy"
ZONE T="Shannon Entropy Data"
2.5	4.971939734180591
3.5	4.689601127642663
4.5	4.697072258341447
5.5	5.304557055901969
6.5	5.123622149199735
7.5	5.21307187681252
8.5	5.347325924793332
9.5	5.284567407396548
10.5	5.257458496303959
11.5	5.286151267864882
12.5	5.4133786488793305
13.5	5.396250252404234
14.5	5.2122357853359595
15.5	5.132681806043319
16.5	5.260796119892806
17.5	5.285582446044675
18.5	5.267019309057165
19.5	5.257765455799182
20.5	5.307173643056341
21.5	5.2438146806135935
22.5	5.305197155627832
23.5	5.1628900029823885
24.5	5.067710446490433
25.5	5.25358013400458
26.5	5.223098196167943
27.5	5.304095305645357
28.5	5.227694182252844
29.5	5.347162011488862
30.5	5.412337170947783
31.5	5.2840510605168
32.5	5.252724184164432
33.5	5.23152084665076
34.5	5.224748319426295
35.5	5.209793910333962
36.5	5.3600290926685785
37.5	5.326176618488857
38.5	5.403201621680366
39.5	5.4186682523851575
40.5	5.395269618974793
41.5	5.383762406618673
42.5	5.5181902402218865
43.5	5.404310693658556
44.5	5.345643923859628
45.5	5.42190815972198
46.5	5.45333528113621
47.5	5.35764021820118
48.5	5.302159837859949
49.5	5.153967056755915
50.5	4.992967723255582
51.5	4.634790467137653
52.5	4.812967645566696
53.5	4.792293208292417
54.5	5.1462868989112005
55.5	5.0766206563920875
56.5	5.1640297439042575
